----- GAMESS execution script 'rungms' -----
This job is running on host puget
under operating system Linux at Wed Apr 27 11:07:11 EDT 2016
Available scratch disk space (Kbyte units) at beginning of the job is
Filesystem              1K-blocks    Used Available Use% Mounted on
/dev/mapper/centos-home 430230272 6213096 424017176   2% /home
GAMESS temporary binary files will be written to /home/pdobosh/Scratch
GAMESS supplementary output files will be written to /home/pdobosh/Scratch
Copying input file GMS-H2CO-9.inp to your run's scratch directory...

 Distributed Data Interface kickoff program.
 Initiating 1 compute processes on 1 nodes to run the following command:
 /usr/local/gamess/gamess.00.x GMS-H2CO-9 

          ******************************************************
          *         GAMESS VERSION =  5 DEC 2014 (R1)          *
          *             FROM IOWA STATE UNIVERSITY             *
          * M.W.SCHMIDT, K.K.BALDRIDGE, J.A.BOATZ, S.T.ELBERT, *
          *   M.S.GORDON, J.H.JENSEN, S.KOSEKI, N.MATSUNAGA,   *
          *          K.A.NGUYEN, S.J.SU, T.L.WINDUS,           *
          *       TOGETHER WITH M.DUPUIS, J.A.MONTGOMERY       *
          *         J.COMPUT.CHEM.  14, 1347-1363(1993)        *
          **************** 64 BIT LINUX VERSION ****************

  SINCE 1993, STUDENTS AND POSTDOCS WORKING AT IOWA STATE UNIVERSITY
  AND ALSO IN THEIR VARIOUS JOBS AFTER LEAVING ISU HAVE MADE IMPORTANT
  CONTRIBUTIONS TO THE CODE:
     IVANA ADAMOVIC, CHRISTINE AIKENS, YURI ALEXEEV, POOJA ARORA,
     ANDREY ASADCHEV, ROB BELL, PRADIPTA BANDYOPADHYAY, JONATHAN BENTZ,
     BRETT BODE, KURT BRORSEN, CALEB CARLIN, GALINA CHABAN, WEI CHEN,
     CHEOL HO CHOI, PAUL DAY, ALBERT DEFUSCO, NUWAN DESILVA, TIM DUDLEY,
     DMITRI FEDOROV, GRAHAM FLETCHER, MARK FREITAG, KURT GLAESEMANN,
     DAN KEMP, GRANT MERRILL, NORIYUKI MINEZAWA, JONATHAN MULLIN,
     TAKESHI NAGATA, SEAN NEDD, HEATHER NETZLOFF, BOSILJKA NJEGIC, RYAN OLSON,
     MIKE PAK, SPENCER PRUITT, LUKE ROSKOP, JIM SHOEMAKER, LYUDMILA SLIPCHENKO,
     TONY SMITH, SAROM SOK, JIE SONG, TETSUYA TAKETSUGU, SIMON WEBB,
     PENG XU, SOOHAENG YOO, FEDERICO ZAHARIEV

  ADDITIONAL CODE HAS BEEN PROVIDED BY COLLABORATORS IN OTHER GROUPS:
     IOWA STATE UNIVERSITY:
          JOE IVANIC, AARON WEST, LAIMUTIS BYTAUTAS, KLAUS RUEDENBERG
     UNIVERSITY OF TOKYO: KIMIHIKO HIRAO, TAKAHITO NAKAJIMA,
          TAKAO TSUNEDA, MUNEAKI KAMIYA, SUSUMU YANAGISAWA,
          KIYOSHI YAGI, MAHITO CHIBA, SEIKEN TOKURA, NAOAKI KAWAKAMI
     UNIVERSITY OF AARHUS: FRANK JENSEN
     UNIVERSITY OF IOWA: VISVALDAS KAIRYS, HUI LI
     NATIONAL INST. OF STANDARDS AND TECHNOLOGY: WALT STEVENS, DAVID GARMER
     UNIVERSITY OF PISA: BENEDETTA MENNUCCI, JACOPO TOMASI
     UNIVERSITY OF MEMPHIS: HENRY KURTZ, PRAKASHAN KORAMBATH
     UNIVERSITY OF ALBERTA: TOBY ZENG, MARIUSZ KLOBUKOWSKI
     UNIVERSITY OF NEW ENGLAND: MARK SPACKMAN
     MIE UNIVERSITY: HIROAKI UMEDA
     NAT. INST. OF ADVANCED INDUSTRIAL SCIENCE AND TECHNOLOGY: KAZUO KITAURA
     MICHIGAN STATE UNIVERSITY:
          KAROL KOWALSKI, MARTA WLOCH, JEFFREY GOUR, JESSE LUTZ,
          WEI LI, PIOTR PIECUCH
     UNIVERSITY OF SILESIA: MONIKA MUSIAL, STANISLAW KUCHARSKI
     FACULTES UNIVERSITAIRES NOTRE-DAME DE LA PAIX:
          OLIVIER QUINET, BENOIT CHAMPAGNE
     UNIVERSITY OF CALIFORNIA - SANTA BARBARA: BERNARD KIRTMAN
     INSTITUTE FOR MOLECULAR SCIENCE:
          KAZUYA ISHIMURA, MICHIO KATOUDA, AND SHIGERU NAGASE
     UNIVERSITY OF NOTRE DAME: ANNA POMOGAEVA, DAN CHIPMAN
     KYUSHU UNIVERSITY:
          HARUYUKI NAKANO,
          FENG LONG GU, JACEK KORCHOWIEC, MARCIN MAKOWSKI, AND YURIKO AOKI,
          HIROTOSHI MORI AND EISAKU MIYOSHI
     PENNSYLVANIA STATE UNIVERSITY:
          TZVETELIN IORDANOV, CHET SWALINA, JONATHAN SKONE,
          SHARON HAMMES-SCHIFFER
     WASEDA UNIVERSITY:
          MASATO KOBAYASHI, TOMOKO AKAMA, TSUGUKI TOUMA,
          TAKESHI YOSHIKAWA, YASUHIRO IKABATA, HIROMI NAKAI
     NANJING UNIVERSITY: SHUHUA LI
     UNIVERSITY OF NEBRASKA:
          PEIFENG SU, DEJUN SI, NANDUN THELLAMUREGE, YALI WANG, HUI LI
     UNIVERSITY OF ZURICH: ROBERTO PEVERATI, KIM BALDRIDGE
     N. COPERNICUS UNIVERSITY AND JACKSON STATE UNIVERSITY:
          MARIA BARYSZ
     UNIVERSITY OF COPENHAGEN: CASPER STEINMANN
     TOKYO INSTITUTE OF TECHNOLOGY: HIROYA NAKATA
     NAGOYA UNIVERSITY: YOSHIO NISHIMOTO, STEPHAN IRLE

 EXECUTION OF GAMESS BEGUN Wed Apr 27 11:07:11 2016

            ECHO OF THE FIRST FEW INPUT CARDS -
 INPUT CARD>! H2CO HF 6-31g** RHF optimization, vibrational spectrum                        
 INPUT CARD> $CONTRL SCFTYP=RHF RUNTYP=OPTIMIZE $END                                        
 INPUT CARD> $BASIS GBASIS=N31 NGAUSS=6 NDFUNC=1 NPFUNC=1 $END                              
 INPUT CARD> $STATPT OPTTOL=0.0001 NSTEP=20 HSSEND=.TRUE. $END                              
 INPUT CARD> $GUESS  GUESS=HUCKEL $END                                                      
 INPUT CARD> $DATA                                                                          
 INPUT CARD>Formaldehyde                                                                    
 INPUT CARD>C1                                                                              
 INPUT CARD>C  6.0  0.00000000000       0.00000000000       0.0000000000                    
 INPUT CARD>O  8.0  0.00000000000       0.00000000000       1.2300000000                    
 INPUT CARD>H  1.0  0.0000000000        0.9439676901       -0.5450000000                    
 INPUT CARD>H  1.0  0.0000000000       -0.9439676901       -0.5450000000                    
 INPUT CARD> $END                                                                           
 INPUT CARD>                                                                                
 INPUT CARD>                                                                                
    1000000 WORDS OF MEMORY AVAILABLE

     BASIS OPTIONS
     -------------
     GBASIS=N31          IGAUSS=       6      POLAR=POPN31  
     NDFUNC=       1     NFFUNC=       0     DIFFSP=       F
     NPFUNC=       1      DIFFS=       F     BASNAM=        


     RUN TITLE
     ---------
 Formaldehyde                                                                    

 THE POINT GROUP OF THE MOLECULE IS C1      
 THE ORDER OF THE PRINCIPAL AXIS IS     0

 ATOM      ATOMIC                      COORDINATES (BOHR)
           CHARGE         X                   Y                   Z
 C           6.0     0.0000000000        0.0000000000        0.0000000000
 O           8.0     0.0000000000        0.0000000000        2.3243629649
 H           1.0     0.0000000000        1.7838402756       -1.0299006633
 H           1.0     0.0000000000       -1.7838402756       -1.0299006633

          INTERNUCLEAR DISTANCES (ANGS.)
          ------------------------------

                1 C          2 O          3 H          4 H     

   1 C       0.0000000    1.2300000 *  1.0900000 *  1.0900000 *
   2 O       1.2300000 *  0.0000000    2.0103980 *  2.0103980 *
   3 H       1.0900000 *  2.0103980 *  0.0000000    1.8879354 *
   4 H       1.0900000 *  2.0103980 *  1.8879354 *  0.0000000  

  * ... LESS THAN  3.000


     ATOMIC BASIS SET
     ----------------
 THE CONTRACTED PRIMITIVE FUNCTIONS HAVE BEEN UNNORMALIZED
 THE CONTRACTED BASIS FUNCTIONS ARE NOW NORMALIZED TO UNITY

  SHELL TYPE  PRIMITIVE        EXPONENT          CONTRACTION COEFFICIENT(S)

 C         

      1   S       1          3047.5248800    0.001834737132
      1   S       2           457.3695180    0.014037322813
      1   S       3           103.9486850    0.068842622264
      1   S       4            29.2101553    0.232184443216
      1   S       5             9.2866630    0.467941348435
      1   S       6             3.1639270    0.362311985337

      2   L       7             7.8682723   -0.119332419775    0.068999066591
      2   L       8             1.8812885   -0.160854151696    0.316423960957
      2   L       9             0.5442493    1.143456437840    0.744308290898

      3   L      10             0.1687145    1.000000000000    1.000000000000

      4   D      11             0.8000000    1.000000000000

 O         

      5   S      12          5484.6716600    0.001831074430
      5   S      13           825.2349460    0.013950172200
      5   S      14           188.0469580    0.068445078098
      5   S      15            52.9645000    0.232714335992
      5   S      16            16.8975704    0.470192897984
      5   S      17             5.7996353    0.358520852987

      6   L      18            15.5396162   -0.110777549525    0.070874268231
      6   L      19             3.5999336   -0.148026262701    0.339752839147
      6   L      20             1.0137618    1.130767015354    0.727158577316

      7   L      21             0.2700058    1.000000000000    1.000000000000

      8   D      22             0.8000000    1.000000000000

 H         

      9   S      23            18.7311370    0.033494604338
      9   S      24             2.8253944    0.234726953484
      9   S      25             0.6401217    0.813757326146

     10   S      26             0.1612778    1.000000000000

     11   P      27             1.1000000    1.000000000000

 H         

     12   S      28            18.7311370    0.033494604338
     12   S      29             2.8253944    0.234726953484
     12   S      30             0.6401217    0.813757326146

     13   S      31             0.1612778    1.000000000000

     14   P      32             1.1000000    1.000000000000

 TOTAL NUMBER OF BASIS SET SHELLS             =   14
 NUMBER OF CARTESIAN GAUSSIAN BASIS FUNCTIONS =   40
 NUMBER OF ELECTRONS                          =   16
 CHARGE OF MOLECULE                           =    0
 SPIN MULTIPLICITY                            =    1
 NUMBER OF OCCUPIED ORBITALS (ALPHA)          =    8
 NUMBER OF OCCUPIED ORBITALS (BETA )          =    8
 TOTAL NUMBER OF ATOMS                        =    4
 THE NUCLEAR REPULSION ENERGY IS       30.9684405662

     $CONTRL OPTIONS
     ---------------
 SCFTYP=RHF          RUNTYP=OPTIMIZE     EXETYP=RUN     
 MPLEVL=       0     CITYP =NONE         CCTYP =NONE         VBTYP =NONE    
 DFTTYP=NONE         TDDFT =NONE    
 MULT  =       1     ICHARG=       0     NZVAR =       0     COORD =UNIQUE  
 PP    =NONE         RELWFN=NONE         LOCAL =NONE         NUMGRD=       F
 ISPHER=      -1     NOSYM =       0     MAXIT =      30     UNITS =ANGS    
 PLTORB=       F     MOLPLT=       F     AIMPAC=       F     FRIEND=        
 NPRINT=       7     IREST =       0     GEOM  =INPUT   
 NORMF =       0     NORMP =       0     ITOL  =      20     ICUT  =       9
 INTTYP=BEST         GRDTYP=BEST         QMTTOL= 1.0E-06

     $SYSTEM OPTIONS
     ---------------
  REPLICATED MEMORY=     1000000 WORDS (ON EVERY NODE).
 DISTRIBUTED MEMDDI=           0 MILLION WORDS IN AGGREGATE,
 MEMDDI DISTRIBUTED OVER   1 PROCESSORS IS           0 WORDS/PROCESSOR.
 TOTAL MEMORY REQUESTED ON EACH PROCESSOR=     1000000 WORDS.
 TIMLIM=      525600.00 MINUTES, OR     365.0 DAYS.
 PARALL= F  BALTYP=  DLB     KDIAG=    0  COREFL= F
 MXSEQ2=     300 MXSEQ3=     150  mem10=         0

          ----------------
          PROPERTIES INPUT
          ----------------

     MOMENTS            FIELD           POTENTIAL          DENSITY
 IEMOM =       1   IEFLD =       0   IEPOT =       0   IEDEN =       0
 WHERE =COMASS     WHERE =NUCLEI     WHERE =NUCLEI     WHERE =NUCLEI  
 OUTPUT=BOTH       OUTPUT=BOTH       OUTPUT=BOTH       OUTPUT=BOTH    
 IEMINT=       0   IEFINT=       0                     IEDINT=       0
                                                       MORB  =       0
          EXTRAPOLATION IN EFFECT
          SOSCF IN EFFECT
 ORBITAL PRINTING OPTION: NPREO=     1    40     2     1

     -------------------------------
     INTEGRAL TRANSFORMATION OPTIONS
     -------------------------------
     NWORD  =            0
     CUTOFF = 1.0E-09     MPTRAN =       0
     DIRTRF =       F     AOINTS =DUP     

          ----------------------
          INTEGRAL INPUT OPTIONS
          ----------------------
 NOPK  =       1 NORDER=       0 SCHWRZ=       F

     ------------------------------------------
     THE POINT GROUP IS C1 , NAXIS= 0, ORDER= 1
     ------------------------------------------

     DIMENSIONS OF THE SYMMETRY SUBSPACES ARE
 A   =   40

 ..... DONE SETTING UP THE RUN .....
 STEP CPU TIME =     0.00 TOTAL CPU TIME =        0.0 (    0.0 MIN)
 TOTAL WALL CLOCK TIME=        0.0 SECONDS, CPU UTILIZATION IS 100.00%


          -----------------------------
          STATIONARY POINT LOCATION RUN
          -----------------------------

 OBTAINING INITIAL HESSIAN, HESS=GUESS   
 CARTESIAN COORDINATE OPTIMIZATION USING BADGER'S RULE FORCE CONSTANT GUESS

          PARAMETERS CONTROLLING GEOMETRY SEARCH ARE
          METHOD =QA                  UPHESS =BFGS    
          NNEG   =         0          NFRZ   =         0
          NSTEP  =        20          IFOLOW =         1
          HESS   =GUESS               RESTAR =         F
          IHREP  =         0          HSSEND =         T
          NPRT   =         0          NPUN   =         0
          OPTTOL = 1.000E-04          RMIN   = 1.500E-03
          RMAX   = 1.000E-01          RLIM   = 7.000E-02
          DXMAX  = 3.000E-01          PURIFY =         F
          MOVIE  =         F          TRUPD  =         T
          TRMAX  = 5.000E-01          TRMIN  = 5.000E-02
          ITBMAT =         5          STPT   =         F
          STSTEP = 1.000E-02          PROJCT=          T

 BEGINNING GEOMETRY SEARCH POINT NSERCH=   0 ...

 COORDINATES OF ALL ATOMS ARE (ANGS)
   ATOM   CHARGE       X              Y              Z
 ------------------------------------------------------------
 C           6.0   0.0000000000   0.0000000000   0.0000000000
 O           8.0   0.0000000000   0.0000000000   1.2300000000
 H           1.0   0.0000000000   0.9439676901  -0.5450000000
 H           1.0   0.0000000000  -0.9439676901  -0.5450000000

          ********************
          1 ELECTRON INTEGRALS
          ********************
 ...... END OF ONE-ELECTRON INTEGRALS ......
 STEP CPU TIME =     0.00 TOTAL CPU TIME =        0.0 (    0.0 MIN)
 TOTAL WALL CLOCK TIME=        0.0 SECONDS, CPU UTILIZATION IS 100.00%

          -------------
          GUESS OPTIONS
          -------------
          GUESS =HUCKEL            NORB  =       0          NORDER=       0
          MIX   =       F          PRTMO =       F          PUNMO =       F
          TOLZ  = 1.0E-08          TOLE  = 1.0E-05
          SYMDEN=       F          PURIFY=       F

 INITIAL GUESS ORBITALS GENERATED BY HUCKEL   ROUTINE.
 HUCKEL GUESS REQUIRES     15280 WORDS.

 SYMMETRIES FOR INITIAL GUESS ORBITALS FOLLOW.   BOTH SET(S).
     8 ORBITALS ARE OCCUPIED (    2 CORE ORBITALS).
     3=A        4=A        5=A        6=A        7=A        8=A        9=A   
    10=A       11=A       12=A       13=A       14=A       15=A       16=A   
    17=A       18=A   
 ...... END OF INITIAL ORBITAL SELECTION ......
 STEP CPU TIME =     0.00 TOTAL CPU TIME =        0.0 (    0.0 MIN)
 TOTAL WALL CLOCK TIME=        0.0 SECONDS, CPU UTILIZATION IS   0.00%

                    ----------------------
                    AO INTEGRAL TECHNOLOGY
                    ----------------------
     S,P,L SHELL ROTATED AXIS INTEGRALS, REPROGRAMMED BY
        KAZUYA ISHIMURA (IMS) AND JOSE SIERRA (SYNSTAR).
     S,P,D,L SHELL ROTATED AXIS INTEGRALS PROGRAMMED BY
        KAZUYA ISHIMURA (INSTITUTE FOR MOLECULAR SCIENCE).
     S,P,D,F,G SHELL TO TOTAL QUARTET ANGULAR MOMENTUM SUM 5,
        ERIC PROGRAM BY GRAHAM FLETCHER (ELORET AND NASA ADVANCED
        SUPERCOMPUTING DIVISION, AMES RESEARCH CENTER).
     S,P,D,F,G,L SHELL GENERAL RYS QUADRATURE PROGRAMMED BY
        MICHEL DUPUIS (PACIFIC NORTHWEST NATIONAL LABORATORY).

          --------------------
          2 ELECTRON INTEGRALS
          --------------------

 THE -PK- OPTION IS OFF, THE INTEGRALS ARE NOT IN SUPERMATRIX FORM.
 STORING   15000 INTEGRALS/RECORD ON DISK, USING 12 BYTES/INTEGRAL.
 TWO ELECTRON INTEGRAL EVALUATION REQUIRES   90501 WORDS OF MEMORY.
 II,JST,KST,LST =  1  1  1  1 NREC =         1 INTLOC =    1
 II,JST,KST,LST =  2  1  1  1 NREC =         1 INTLOC =    2
 II,JST,KST,LST =  3  1  1  1 NREC =         1 INTLOC =   34
 II,JST,KST,LST =  4  1  1  1 NREC =         1 INTLOC =  214
 II,JST,KST,LST =  5  1  1  1 NREC =         1 INTLOC = 1189
 II,JST,KST,LST =  6  1  1  1 NREC =         1 INTLOC = 1866
 II,JST,KST,LST =  7  1  1  1 NREC =         1 INTLOC = 5596
 II,JST,KST,LST =  8  1  1  1 NREC =         1 INTLOC =12130
 II,JST,KST,LST =  9  1  1  1 NREC =         2 INTLOC =13697
 II,JST,KST,LST = 10  1  1  1 NREC =         3 INTLOC = 7063
 II,JST,KST,LST = 11  1  1  1 NREC =         4 INTLOC = 1359
 II,JST,KST,LST = 12  1  1  1 NREC =         6 INTLOC = 2154
 II,JST,KST,LST = 13  1  1  1 NREC =         7 INTLOC =  227
 II,JST,KST,LST = 14  1  1  1 NREC =         7 INTLOC =14560
 TOTAL NUMBER OF NONZERO TWO-ELECTRON INTEGRALS =              150330
         11 INTEGRAL RECORDS WERE STORED ON DISK FILE  8.
  ...... END OF TWO-ELECTRON INTEGRALS .....
 STEP CPU TIME =     0.03 TOTAL CPU TIME =        0.0 (    0.0 MIN)
 TOTAL WALL CLOCK TIME=        0.0 SECONDS, CPU UTILIZATION IS 100.00%

          --------------------------
                 RHF SCF CALCULATION
          --------------------------

     NUCLEAR ENERGY =        30.9684405662
     MAXIT =   30     NPUNCH=    2
     EXTRAP=T  DAMP=F  SHIFT=F  RSTRCT=F  DIIS=F  DEM=F  SOSCF=T
     DENSITY MATRIX CONV=  1.00E-05
     SOSCF WILL OPTIMIZE     256 ORBITAL ROTATIONS, SOGTOL=   0.250
     MEMORY REQUIRED FOR RHF ITERS=     42784 WORDS.

 ITER EX DEM     TOTAL ENERGY        E CHANGE  DENSITY CHANGE     ORB. GRAD
   1  0  0     -113.5095393339  -113.5095393339   0.313542071   0.000000000
          ---------------START SECOND ORDER SCF---------------
   2  1  0     -113.8322927699    -0.3227534360   0.143670831   0.071685164
   3  2  0     -113.8495973241    -0.0173045542   0.054125008   0.055898885
   4  3  0     -113.8656076958    -0.0160103717   0.011455033   0.005317085
   5  4  0     -113.8658548654    -0.0002471696   0.004104212   0.001987394
   6  5  0     -113.8658939796    -0.0000391142   0.002302031   0.000921207
   7  6  0     -113.8659008316    -0.0000068520   0.000662439   0.000184117
   8  7  0     -113.8659015326    -0.0000007011   0.000179541   0.000077658
   9  8  0     -113.8659015891    -0.0000000565   0.000037318   0.000015622
  10  9  0     -113.8659015912    -0.0000000022   0.000007373   0.000002468
  11 10  0     -113.8659015914    -0.0000000001   0.000001209   0.000000596

          -----------------
          DENSITY CONVERGED
          -----------------
     TIME TO FORM FOCK OPERATORS=       0.0 SECONDS (       0.0 SEC/ITER)
     TIME TO SOLVE SCF EQUATIONS=       0.0 SECONDS (       0.0 SEC/ITER)

 FINAL RHF ENERGY IS     -113.8659015914 AFTER  11 ITERATIONS

          ------------
          EIGENVECTORS
          ------------

                      1          2          3          4          5
                  -20.5831   -11.3430    -1.3861    -0.8722    -0.6927
                     A          A          A          A          A   
    1  C  1  S    0.000005   0.995722  -0.109563  -0.163556   0.000000
    2  C  1  S    0.000482   0.026386   0.209321   0.344492   0.000000
    3  C  1  X   -0.000000  -0.000000   0.000000   0.000000   0.000000
    4  C  1  Y   -0.000000  -0.000000   0.000000   0.000000   0.412338
    5  C  1  Z   -0.000037   0.000568   0.171441  -0.177726   0.000000
    6  C  1  S   -0.000139  -0.007227   0.072273   0.297871   0.000000
    7  C  1  X   -0.000000  -0.000000   0.000000   0.000000   0.000000
    8  C  1  Y   -0.000000  -0.000000   0.000000   0.000000   0.148514
    9  C  1  Z   -0.000368   0.001380  -0.012788  -0.076124   0.000000
   10  C  1 XX   -0.000021  -0.002610  -0.015759  -0.012972   0.000000
   11  C  1 YY   -0.000002  -0.001677  -0.019918   0.016620   0.000000
   12  C  1 ZZ   -0.000715  -0.001071   0.030566  -0.007398   0.000000
   13  C  1 XY   -0.000000  -0.000000   0.000000   0.000000   0.000000
   14  C  1 XZ   -0.000000  -0.000000   0.000000   0.000000   0.000000
   15  C  1 YZ   -0.000000  -0.000000   0.000000   0.000000  -0.006813
   16  O  2  S    0.994732  -0.000346  -0.197176   0.088559   0.000000
   17  O  2  S    0.020939   0.000283   0.441583  -0.205029   0.000000
   18  O  2  X   -0.000000  -0.000000   0.000000   0.000000   0.000000
   19  O  2  Y   -0.000000  -0.000000   0.000000   0.000000   0.319191
   20  O  2  Z   -0.001509  -0.000271  -0.132358  -0.142344   0.000000
   21  O  2  S    0.004117  -0.000729   0.389710  -0.263889   0.000000
   22  O  2  X   -0.000000  -0.000000   0.000000   0.000000   0.000000
   23  O  2  Y   -0.000000  -0.000000   0.000000   0.000000   0.180895
   24  O  2  Z    0.000143   0.001147  -0.050908  -0.072799   0.000000
   25  O  2 XX   -0.004136   0.000188  -0.001161  -0.001704   0.000000
   26  O  2 YY   -0.003793  -0.000075  -0.001325  -0.004842   0.000000
   27  O  2 ZZ   -0.003565  -0.000233   0.019745   0.010347   0.000000
   28  O  2 XY   -0.000000  -0.000000   0.000000   0.000000   0.000000
   29  O  2 XZ   -0.000000  -0.000000   0.000000   0.000000   0.000000
   30  O  2 YZ   -0.000000  -0.000000   0.000000   0.000000  -0.022209
   31  H  3  S   -0.000037  -0.000291   0.032116   0.181982   0.193980
   32  H  3  S   -0.000126   0.002008  -0.001737   0.074413   0.132724
   33  H  3  X   -0.000000  -0.000000   0.000000   0.000000   0.000000
   34  H  3  Y   -0.000006   0.000155  -0.004735  -0.013266  -0.009541
   35  H  3  Z   -0.000074  -0.000150   0.004409   0.005411   0.006376
   36  H  4  S   -0.000037  -0.000291   0.032116   0.181982  -0.193980
   37  H  4  S   -0.000126   0.002008  -0.001737   0.074413  -0.132724
   38  H  4  X   -0.000000  -0.000000   0.000000   0.000000   0.000000
   39  H  4  Y    0.000006  -0.000155   0.004735   0.013266  -0.009541
   40  H  4  Z   -0.000074  -0.000150   0.004409   0.005411  -0.006376

                      6          7          8          9         10
                   -0.6363    -0.5190    -0.4407     0.1319     0.2460
                     A          A          A          A          A   
    1  C  1  S    0.019214   0.000000  -0.000000   0.000000  -0.122727
    2  C  1  S   -0.059744   0.000000  -0.000000   0.000000   0.149488
    3  C  1  X    0.000000   0.322946  -0.000000   0.404115   0.000000
    4  C  1  Y    0.000000   0.000000  -0.193913   0.000000   0.000000
    5  C  1  Z   -0.375661   0.000000  -0.000000   0.000000  -0.209437
    6  C  1  S    0.034675   0.000000  -0.000000   0.000000   1.971218
    7  C  1  X    0.000000   0.211596  -0.000000   0.696351   0.000000
    8  C  1  Y    0.000000   0.000000  -0.037949   0.000000   0.000000
    9  C  1  Z   -0.085674   0.000000  -0.000000   0.000000  -0.734496
   10  C  1 XX    0.005398   0.000000  -0.000000   0.000000  -0.002766
   11  C  1 YY    0.024528   0.000000  -0.000000   0.000000  -0.011410
   12  C  1 ZZ   -0.021906   0.000000  -0.000000   0.000000  -0.005540
   13  C  1 XY    0.000000   0.000000  -0.000000   0.000000   0.000000
   14  C  1 XZ    0.000000   0.035953  -0.000000  -0.030795   0.000000
   15  C  1 YZ    0.000000   0.000000   0.055698   0.000000   0.000000
   16  O  2  S   -0.069116   0.000000  -0.000000   0.000000  -0.000082
   17  O  2  S    0.152980   0.000000  -0.000000   0.000000  -0.010304
   18  O  2  X    0.000000   0.490686  -0.000000  -0.380827   0.000000
   19  O  2  Y    0.000000   0.000000   0.566857   0.000000   0.000000
   20  O  2  Z    0.507237   0.000000  -0.000000   0.000000   0.054999
   21  O  2  S    0.317241   0.000000  -0.000000   0.000000   0.084697
   22  O  2  X    0.000000   0.356306  -0.000000  -0.519917   0.000000
   23  O  2  Y    0.000000   0.000000   0.442776   0.000000   0.000000
   24  O  2  Z    0.288224   0.000000  -0.000000   0.000000   0.056638
   25  O  2 XX    0.004836   0.000000  -0.000000   0.000000   0.002049
   26  O  2 YY    0.007474   0.000000  -0.000000   0.000000  -0.009312
   27  O  2 ZZ   -0.034134   0.000000  -0.000000   0.000000   0.000098
   28  O  2 XY    0.000000   0.000000  -0.000000   0.000000   0.000000
   29  O  2 XZ    0.000000  -0.041291  -0.000000   0.003560   0.000000
   30  O  2 YZ    0.000000   0.000000  -0.019745   0.000000   0.000000
   31  H  3  S    0.092173   0.000000  -0.180182   0.000000  -0.048304
   32  H  3  S    0.078597   0.000000  -0.229550   0.000000  -1.461758
   33  H  3  X    0.000000   0.005389  -0.000000   0.017024   0.000000
   34  H  3  Y   -0.005494   0.000000   0.005223   0.000000  -0.001333
   35  H  3  Z   -0.001844   0.000000  -0.002769   0.000000  -0.003896
   36  H  4  S    0.092173   0.000000   0.180182   0.000000  -0.048304
   37  H  4  S    0.078597   0.000000   0.229550   0.000000  -1.461758
   38  H  4  X    0.000000   0.005389  -0.000000   0.017024   0.000000
   39  H  4  Y    0.005494   0.000000   0.005223   0.000000   0.001333
   40  H  4  Z   -0.001844   0.000000   0.002769   0.000000  -0.003896

                     11         12         13         14         15
                    0.3310     0.3724     0.7366     0.8083     0.8382
                     A          A          A          A          A   
    1  C  1  S    0.000000   0.054722  -0.000000  -0.071585  -0.000000
    2  C  1  S    0.000000   0.002642  -0.000000  -0.766229  -0.000000
    3  C  1  X    0.000000   0.000000  -1.072096  -0.000000  -0.000000
    4  C  1  Y   -0.433106   0.000000  -0.000000  -0.000000  -0.738138
    5  C  1  Z    0.000000  -0.058311  -0.000000   0.395168  -0.000000
    6  C  1  S    0.000000  -1.758863  -0.000000   2.115373  -0.000000
    7  C  1  X    0.000000   0.000000   1.115311  -0.000000  -0.000000
    8  C  1  Y   -1.622871   0.000000  -0.000000  -0.000000   2.443373
    9  C  1  Z    0.000000  -1.973775  -0.000000  -0.715674  -0.000000
   10  C  1 XX    0.000000  -0.002318  -0.000000   0.053460  -0.000000
   11  C  1 YY    0.000000  -0.019510  -0.000000  -0.215739  -0.000000
   12  C  1 ZZ    0.000000  -0.005037  -0.000000  -0.096549  -0.000000
   13  C  1 XY    0.000000   0.000000  -0.000000  -0.000000  -0.000000
   14  C  1 XZ    0.000000   0.000000  -0.017053  -0.000000  -0.000000
   15  C  1 YZ    0.007525   0.000000  -0.000000  -0.000000   0.030548
   16  O  2  S    0.000000  -0.107050  -0.000000   0.021236  -0.000000
   17  O  2  S    0.000000   0.033604  -0.000000  -0.277026  -0.000000
   18  O  2  X    0.000000   0.000000  -0.012640  -0.000000  -0.000000
   19  O  2  Y    0.126538   0.000000  -0.000000  -0.000000  -0.321318
   20  O  2  Z    0.000000  -0.161347  -0.000000   0.024767  -0.000000
   21  O  2  S    0.000000   2.220581  -0.000000   0.154736  -0.000000
   22  O  2  X    0.000000   0.000000  -0.096479  -0.000000  -0.000000
   23  O  2  Y    0.389555   0.000000  -0.000000  -0.000000  -0.275114
   24  O  2  Z    0.000000  -0.945065  -0.000000   0.255355  -0.000000
   25  O  2 XX    0.000000  -0.081192  -0.000000  -0.044331  -0.000000
   26  O  2 YY    0.000000  -0.078756  -0.000000  -0.093884  -0.000000
   27  O  2 ZZ    0.000000   0.002955  -0.000000  -0.060354  -0.000000
   28  O  2 XY    0.000000   0.000000  -0.000000  -0.000000  -0.000000
   29  O  2 XZ    0.000000   0.000000   0.085888  -0.000000  -0.000000
   30  O  2 YZ    0.004090   0.000000  -0.000000  -0.000000   0.025104
   31  H  3  S   -0.031913  -0.016349  -0.000000  -0.567864  -0.343463
   32  H  3  S    1.808982  -0.052927  -0.000000  -0.303328  -1.039295
   33  H  3  X    0.000000   0.000000  -0.015764  -0.000000  -0.000000
   34  H  3  Y   -0.003024  -0.007717  -0.000000  -0.018694   0.060276
   35  H  3  Z   -0.001537  -0.007093  -0.000000  -0.011804   0.004135
   36  H  4  S    0.031913  -0.016349  -0.000000  -0.567864   0.343463
   37  H  4  S   -1.808982  -0.052927  -0.000000  -0.303328   1.039295
   38  H  4  X    0.000000   0.000000  -0.015764  -0.000000  -0.000000
   39  H  4  Y   -0.003024   0.007717  -0.000000   0.018694   0.060276
   40  H  4  Z    0.001537  -0.007093  -0.000000  -0.011804  -0.004135

                     16         17         18         19         20
                    0.9289     1.0743     1.0968     1.1141     1.2703
                     A          A          A          A          A   
    1  C  1  S   -0.040053  -0.000000   0.069904  -0.008315  -0.000000
    2  C  1  S    0.746255  -0.000000  -0.605453  -1.287045  -0.000000
    3  C  1  X    0.000000  -0.000000  -0.000000  -0.000000   0.082500
    4  C  1  Y    0.000000   0.701699  -0.000000  -0.000000  -0.000000
    5  C  1  Z    0.925475  -0.000000   0.356114   0.266009  -0.000000
    6  C  1  S   -0.499286  -0.000000   1.787884   2.596049  -0.000000
    7  C  1  X    0.000000  -0.000000  -0.000000  -0.000000  -0.428417
    8  C  1  Y    0.000000  -1.138201  -0.000000  -0.000000  -0.000000
    9  C  1  Z   -0.681286  -0.000000  -0.334688  -0.477795  -0.000000
   10  C  1 XX    0.071398  -0.000000  -0.176528  -0.084387  -0.000000
   11  C  1 YY    0.161680  -0.000000   0.055534   0.110160  -0.000000
   12  C  1 ZZ   -0.128926  -0.000000   0.221358  -0.236795  -0.000000
   13  C  1 XY    0.000000  -0.000000  -0.000000  -0.000000  -0.000000
   14  C  1 XZ    0.000000  -0.000000  -0.000000  -0.000000  -0.048841
   15  C  1 YZ    0.000000   0.259259  -0.000000  -0.000000  -0.000000
   16  O  2  S    0.047959  -0.000000  -0.010841   0.013471  -0.000000
   17  O  2  S   -0.167871  -0.000000  -0.403244   0.463796  -0.000000
   18  O  2  X    0.000000  -0.000000  -0.000000  -0.000000  -0.980071
   19  O  2  Y    0.000000  -0.177210  -0.000000  -0.000000  -0.000000
   20  O  2  Z    0.331964  -0.000000  -0.617405   0.363765  -0.000000
   21  O  2  S    0.219003  -0.000000   0.443271  -1.032699  -0.000000
   22  O  2  X    0.000000  -0.000000  -0.000000  -0.000000   1.206545
   23  O  2  Y    0.000000   0.121079  -0.000000  -0.000000  -0.000000
   24  O  2  Z    0.375601  -0.000000   0.971842  -0.491030  -0.000000
   25  O  2 XX   -0.085930  -0.000000  -0.144416   0.197061  -0.000000
   26  O  2 YY   -0.076979  -0.000000  -0.149619   0.173910  -0.000000
   27  O  2 ZZ    0.190185  -0.000000  -0.276759   0.208548  -0.000000
   28  O  2 XY    0.000000  -0.000000  -0.000000  -0.000000  -0.000000
   29  O  2 XZ    0.000000  -0.000000  -0.000000  -0.000000   0.040451
   30  O  2 YZ    0.000000  -0.128529  -0.000000  -0.000000  -0.000000
   31  H  3  S    0.118681  -0.696278   0.408041   0.388783  -0.000000
   32  H  3  S   -0.101490   1.308126  -0.860929  -1.122838  -0.000000
   33  H  3  X    0.000000  -0.000000  -0.000000  -0.000000  -0.025225
   34  H  3  Y    0.043517  -0.061622   0.057563   0.084809  -0.000000
   35  H  3  Z    0.023033   0.090397  -0.054092  -0.003511  -0.000000
   36  H  4  S    0.118681   0.696278   0.408041   0.388783  -0.000000
   37  H  4  S   -0.101490  -1.308126  -0.860929  -1.122838  -0.000000
   38  H  4  X    0.000000  -0.000000  -0.000000  -0.000000  -0.025225
   39  H  4  Y   -0.043517  -0.061622  -0.057563  -0.084809  -0.000000
   40  H  4  Z    0.023033  -0.090397  -0.054092  -0.003511  -0.000000

                     21         22         23         24         25
                    1.3340     1.6175     1.6274     1.7444     1.9783
                     A          A          A          A          A   
    1  C  1  S   -0.000000  -0.027977  -0.000000   0.000000  -0.026681
    2  C  1  S   -0.000000  -0.009210  -0.000000   0.000000  -0.196417
    3  C  1  X   -0.000000   0.000000  -0.000000  -0.174469   0.000000
    4  C  1  Y   -0.245075   0.000000  -0.000000   0.000000   0.000000
    5  C  1  Z   -0.000000  -0.169735  -0.000000   0.000000   0.023399
    6  C  1  S   -0.000000  -2.709302  -0.000000   0.000000   0.947810
    7  C  1  X   -0.000000   0.000000  -0.000000   0.214826   0.000000
    8  C  1  Y    1.542999   0.000000  -0.000000   0.000000   0.000000
    9  C  1  Z   -0.000000  -1.676168  -0.000000   0.000000  -0.117965
   10  C  1 XX   -0.000000  -0.024772  -0.000000   0.000000  -0.485646
   11  C  1 YY   -0.000000   0.232393  -0.000000   0.000000   0.366280
   12  C  1 ZZ   -0.000000  -0.246616  -0.000000   0.000000   0.004614
   13  C  1 XY   -0.000000   0.000000   0.705270   0.000000   0.000000
   14  C  1 XZ   -0.000000   0.000000  -0.000000   0.645103   0.000000
   15  C  1 YZ    0.167004   0.000000  -0.000000   0.000000   0.000000
   16  O  2  S   -0.000000  -0.103603  -0.000000   0.000000   0.004136
   17  O  2  S   -0.000000  -1.679504  -0.000000   0.000000   0.194916
   18  O  2  X   -0.000000   0.000000  -0.000000  -0.127930   0.000000
   19  O  2  Y    0.865826   0.000000  -0.000000   0.000000   0.000000
   20  O  2  Z   -0.000000   0.356833  -0.000000   0.000000  -0.057731
   21  O  2  S   -0.000000   5.108297  -0.000000   0.000000  -0.494613
   22  O  2  X   -0.000000   0.000000  -0.000000  -0.167443   0.000000
   23  O  2  Y   -1.474109   0.000000  -0.000000   0.000000   0.000000
   24  O  2  Z   -0.000000  -1.860367  -0.000000   0.000000   0.220936
   25  O  2 XX   -0.000000  -0.429742  -0.000000   0.000000  -0.661986
   26  O  2 YY   -0.000000  -0.348788  -0.000000   0.000000   0.678489
   27  O  2 ZZ   -0.000000  -0.581247  -0.000000   0.000000   0.070388
   28  O  2 XY   -0.000000   0.000000   0.256569   0.000000   0.000000
   29  O  2 XZ   -0.000000   0.000000  -0.000000  -0.490126   0.000000
   30  O  2 YZ   -0.118642   0.000000  -0.000000   0.000000   0.000000
   31  H  3  S   -0.129465   0.097014  -0.000000   0.000000  -0.300186
   32  H  3  S   -0.664104  -0.014042  -0.000000   0.000000  -0.151399
   33  H  3  X   -0.000000   0.000000   0.301169  -0.174631   0.000000
   34  H  3  Y    0.025182  -0.020993  -0.000000   0.000000  -0.015209
   35  H  3  Z    0.005274   0.008690  -0.000000   0.000000   0.125953
   36  H  4  S    0.129465   0.097014  -0.000000   0.000000  -0.300186
   37  H  4  S    0.664104  -0.014042  -0.000000   0.000000  -0.151399
   38  H  4  X   -0.000000   0.000000  -0.301169  -0.174631   0.000000
   39  H  4  Y    0.025182   0.020993  -0.000000   0.000000   0.015209
   40  H  4  Z   -0.005274   0.008690  -0.000000   0.000000   0.125953

                     26         27         28         29         30
                    2.1130     2.1167     2.2942     2.3064     2.4161
                     A          A          A          A          A   
    1  C  1  S    0.000000   0.000000  -0.000000  -0.010164   0.072979
    2  C  1  S    0.000000   0.000000  -0.000000   0.083631   0.097832
    3  C  1  X    0.000000   0.000000  -0.000000   0.000000   0.000000
    4  C  1  Y    0.057745   0.000000   0.168866   0.000000   0.000000
    5  C  1  Z    0.000000   0.000000  -0.000000   0.100832  -0.160421
    6  C  1  S    0.000000   0.000000  -0.000000   0.058865  -0.779304
    7  C  1  X    0.000000   0.000000  -0.000000   0.000000   0.000000
    8  C  1  Y    0.967612   0.000000  -0.433333   0.000000   0.000000
    9  C  1  Z    0.000000   0.000000  -0.000000   0.679583  -0.475833
   10  C  1 XX    0.000000   0.000000  -0.000000   0.182899   0.954835
   11  C  1 YY    0.000000   0.000000  -0.000000  -0.499485   0.004922
   12  C  1 ZZ    0.000000   0.000000  -0.000000   0.425618  -0.561712
   13  C  1 XY    0.000000  -0.093668  -0.000000   0.000000   0.000000
   14  C  1 XZ    0.000000   0.000000  -0.000000   0.000000   0.000000
   15  C  1 YZ   -0.475933   0.000000   0.182174   0.000000   0.000000
   16  O  2  S    0.000000   0.000000  -0.000000   0.022432  -0.009671
   17  O  2  S    0.000000   0.000000  -0.000000  -0.140240   0.132660
   18  O  2  X    0.000000   0.000000  -0.000000   0.000000   0.000000
   19  O  2  Y    0.275701   0.000000   0.047985   0.000000   0.000000
   20  O  2  Z    0.000000   0.000000  -0.000000   0.354528  -0.439651
   21  O  2  S    0.000000   0.000000  -0.000000  -0.489262   0.536231
   22  O  2  X    0.000000   0.000000  -0.000000   0.000000   0.000000
   23  O  2  Y   -0.490825   0.000000  -0.034791   0.000000   0.000000
   24  O  2  Z    0.000000   0.000000  -0.000000  -0.030479   0.025273
   25  O  2 XX    0.000000   0.000000  -0.000000  -0.456671  -0.190077
   26  O  2 YY    0.000000   0.000000  -0.000000   0.394476   0.482615
   27  O  2 ZZ    0.000000   0.000000  -0.000000   0.015148  -0.109873
   28  O  2 XY    0.000000   0.933456  -0.000000   0.000000   0.000000
   29  O  2 XZ    0.000000   0.000000  -0.000000   0.000000   0.000000
   30  O  2 YZ    0.563374   0.000000   0.522977   0.000000   0.000000
   31  H  3  S   -0.557297   0.000000   0.100449   0.284228   0.140549
   32  H  3  S   -0.157217   0.000000   0.204521   0.009826  -0.039745
   33  H  3  X    0.000000  -0.244162  -0.000000   0.000000   0.000000
   34  H  3  Y   -0.242155   0.000000   0.339115  -0.052333   0.226666
   35  H  3  Z   -0.005946   0.000000   0.505178  -0.429808   0.098013
   36  H  4  S    0.557297   0.000000  -0.100449   0.284228   0.140549
   37  H  4  S    0.157217   0.000000  -0.204521   0.009826  -0.039745
   38  H  4  X    0.000000   0.244162  -0.000000   0.000000   0.000000
   39  H  4  Y   -0.242155   0.000000   0.339115   0.052333  -0.226666
   40  H  4  Z    0.005946   0.000000  -0.505178  -0.429808   0.098013

                     31         32         33         34         35
                    2.5475     2.8778     2.9241     3.0742     3.1077
                     A          A          A          A          A   
    1  C  1  S    0.000000   0.000000  -0.000000   0.000000  -0.067815
    2  C  1  S    0.000000   0.000000  -0.000000   0.000000  -0.161325
    3  C  1  X   -0.244073   0.000000   0.181412   0.000000   0.000000
    4  C  1  Y    0.000000   0.000000  -0.000000   0.559462   0.000000
    5  C  1  Z    0.000000   0.000000  -0.000000   0.000000  -0.617273
    6  C  1  S    0.000000   0.000000  -0.000000   0.000000  -0.225928
    7  C  1  X   -0.379920   0.000000   0.116550   0.000000   0.000000
    8  C  1  Y    0.000000   0.000000  -0.000000   0.988625   0.000000
    9  C  1  Z    0.000000   0.000000  -0.000000   0.000000  -0.747526
   10  C  1 XX    0.000000   0.000000  -0.000000   0.000000  -0.212942
   11  C  1 YY    0.000000   0.000000  -0.000000   0.000000  -0.293206
   12  C  1 ZZ    0.000000   0.000000  -0.000000   0.000000   0.414430
   13  C  1 XY    0.000000   0.809478  -0.000000   0.000000   0.000000
   14  C  1 XZ   -0.057713   0.000000   0.991362   0.000000   0.000000
   15  C  1 YZ    0.000000   0.000000  -0.000000   0.465682   0.000000
   16  O  2  S    0.000000   0.000000  -0.000000   0.000000  -0.010409
   17  O  2  S    0.000000   0.000000  -0.000000   0.000000  -0.690493
   18  O  2  X   -0.099946   0.000000  -0.027985   0.000000   0.000000
   19  O  2  Y    0.000000   0.000000  -0.000000   0.022699   0.000000
   20  O  2  Z    0.000000   0.000000  -0.000000   0.000000   0.226209
   21  O  2  S    0.000000   0.000000  -0.000000   0.000000   1.615270
   22  O  2  X    0.319079   0.000000  -0.357760   0.000000   0.000000
   23  O  2  Y    0.000000   0.000000  -0.000000  -0.508056   0.000000
   24  O  2  Z    0.000000   0.000000  -0.000000   0.000000  -0.829215
   25  O  2 XX    0.000000   0.000000  -0.000000   0.000000  -0.282031
   26  O  2 YY    0.000000   0.000000  -0.000000   0.000000  -0.233253
   27  O  2 ZZ    0.000000   0.000000  -0.000000   0.000000   0.413991
   28  O  2 XY    0.000000  -0.279207  -0.000000   0.000000   0.000000
   29  O  2 XZ   -0.522768   0.000000   0.907069   0.000000   0.000000
   30  O  2 YZ    0.000000   0.000000  -0.000000   0.768423   0.000000
   31  H  3  S    0.000000   0.000000  -0.000000  -0.097646  -0.037435
   32  H  3  S    0.000000   0.000000  -0.000000  -0.692175  -0.339259
   33  H  3  X    0.674550  -0.650555   0.303491   0.000000   0.000000
   34  H  3  Y    0.000000   0.000000  -0.000000   0.226963   0.623266
   35  H  3  Z    0.000000   0.000000  -0.000000  -0.576711   0.308790
   36  H  4  S    0.000000   0.000000  -0.000000   0.097646  -0.037435
   37  H  4  S    0.000000   0.000000  -0.000000   0.692175  -0.339259
   38  H  4  X    0.674550   0.650555   0.303491   0.000000   0.000000
   39  H  4  Y    0.000000   0.000000  -0.000000   0.226963  -0.623266
   40  H  4  Z    0.000000   0.000000  -0.000000   0.576711   0.308790

                     36         37         38         39         40
                    3.2773     3.6919     3.8502     4.1126     4.6540
                     A          A          A          A          A   
    1  C  1  S   -0.020916  -0.133024   0.000000   0.021666  -0.453165
    2  C  1  S   -1.160312   1.078698   0.000000  -0.269493   2.787888
    3  C  1  X    0.000000  -0.000000   0.000000  -0.000000  -0.000000
    4  C  1  Y    0.000000  -0.000000  -0.813276  -0.000000  -0.000000
    5  C  1  Z   -1.212706  -0.358368   0.000000   0.096655  -0.106600
    6  C  1  S   -1.303823   1.367860   0.000000  -1.880969   0.533495
    7  C  1  X    0.000000  -0.000000   0.000000  -0.000000  -0.000000
    8  C  1  Y    0.000000  -0.000000  -0.207800  -0.000000  -0.000000
    9  C  1  Z   -0.544259   0.061497   0.000000  -1.062251  -0.428794
   10  C  1 XX    0.401728  -0.838443   0.000000   0.228999  -1.513209
   11  C  1 YY    0.470792   0.726714   0.000000  -0.031143  -2.263329
   12  C  1 ZZ   -0.943876  -0.610492   0.000000   0.335918  -2.131493
   13  C  1 XY    0.000000  -0.000000   0.000000  -0.000000  -0.000000
   14  C  1 XZ    0.000000  -0.000000   0.000000  -0.000000  -0.000000
   15  C  1 YZ    0.000000  -0.000000   1.362468  -0.000000  -0.000000
   16  O  2  S   -0.059654  -0.015538   0.000000  -0.509225  -0.052413
   17  O  2  S   -0.463177   0.456577   0.000000  -0.086963  -0.109193
   18  O  2  X    0.000000  -0.000000   0.000000  -0.000000  -0.000000
   19  O  2  Y    0.000000  -0.000000  -0.081908  -0.000000  -0.000000
   20  O  2  Z   -0.365516  -0.195004   0.000000   0.299563  -0.197313
   21  O  2  S    2.412023  -0.736583   0.000000   5.177888   1.051599
   22  O  2  X    0.000000  -0.000000   0.000000  -0.000000  -0.000000
   23  O  2  Y    0.000000  -0.000000  -0.157996  -0.000000  -0.000000
   24  O  2  Z   -1.508678   0.407927   0.000000  -1.051402  -0.649374
   25  O  2 XX   -0.668031   0.127658   0.000000  -1.757320  -0.302633
   26  O  2 YY   -0.687203  -0.115322   0.000000  -1.723619  -0.174989
   27  O  2 ZZ    1.383622  -0.144491   0.000000  -1.563800   0.276419
   28  O  2 XY    0.000000  -0.000000   0.000000  -0.000000  -0.000000
   29  O  2 XZ    0.000000  -0.000000   0.000000  -0.000000  -0.000000
   30  O  2 YZ    0.000000  -0.000000   0.474706  -0.000000  -0.000000
   31  H  3  S    0.021545  -0.535657   0.660442   0.122602   0.448012
   32  H  3  S    0.084243  -0.394698   0.225346   0.005073  -0.262258
   33  H  3  X    0.000000  -0.000000   0.000000  -0.000000  -0.000000
   34  H  3  Y   -0.148971   0.614995  -0.870583   0.026148  -0.352657
   35  H  3  Z   -0.157804  -0.642737   0.282972   0.126183   0.272372
   36  H  4  S    0.021545  -0.535657  -0.660442   0.122602   0.448012
   37  H  4  S    0.084243  -0.394698  -0.225346   0.005073  -0.262258
   38  H  4  X    0.000000  -0.000000   0.000000  -0.000000  -0.000000
   39  H  4  Y    0.148971  -0.614995  -0.870583  -0.026148   0.352657
   40  H  4  Z   -0.157804  -0.642737  -0.282972   0.126183   0.272372
 ...... END OF RHF CALCULATION ......
 STEP CPU TIME =     0.05 TOTAL CPU TIME =        0.1 (    0.0 MIN)
 TOTAL WALL CLOCK TIME=        0.1 SECONDS, CPU UTILIZATION IS 100.00%

     ----------------------------------------------------------------
     PROPERTY VALUES FOR THE RHF   SELF-CONSISTENT FIELD WAVEFUNCTION
     ----------------------------------------------------------------

          -----------------
          ENERGY COMPONENTS
          -----------------

         WAVEFUNCTION NORMALIZATION =       1.0000000000

                ONE ELECTRON ENERGY =    -216.7224815150
                TWO ELECTRON ENERGY =      71.8881393575
           NUCLEAR REPULSION ENERGY =      30.9684405662
                                      ------------------
                       TOTAL ENERGY =    -113.8659015914

 ELECTRON-ELECTRON POTENTIAL ENERGY =      71.8881393575
  NUCLEUS-ELECTRON POTENTIAL ENERGY =    -330.1797401131
   NUCLEUS-NUCLEUS POTENTIAL ENERGY =      30.9684405662
                                      ------------------
             TOTAL POTENTIAL ENERGY =    -227.3231601895
               TOTAL KINETIC ENERGY =     113.4572585981
                 VIRIAL RATIO (V/T) =       2.0036017351

  ...... PI ENERGY ANALYSIS ......

 ENERGY ANALYSIS:
            FOCK ENERGY=    -72.9461986073
          BARE H ENERGY=   -216.7224815150
     ELECTRONIC ENERGY =   -144.8343400612
         KINETIC ENERGY=    113.4572585981
          N-N REPULSION=     30.9684405662
           TOTAL ENERGY=   -113.8658994950
        SIGMA PART(1+2)=   -135.7663097383
               (K,V1,2)=    110.0180473335   -309.6423974002     63.8580403284
           PI PART(1+2)=     -9.0680303229
               (K,V1,2)=      3.4392112646    -20.5373427129      8.0301011254
  SIGMA SKELETON, ERROR=   -104.7978691721     -0.0000000000
             MIXED PART= 0.00000E+00 0.00000E+00 0.00000E+00 0.00000E+00
 ...... END OF PI ENERGY ANALYSIS ......

          ---------------------------------------
          MULLIKEN AND LOWDIN POPULATION ANALYSES
          ---------------------------------------

     ATOMIC MULLIKEN POPULATION IN EACH MOLECULAR ORBITAL

                      1          2          3          4          5

                  2.000000   2.000000   2.000000   2.000000   2.000000

    1            -0.000157   1.999776   0.466737   1.079227   0.886154
    2             2.000163  -0.000484   1.519541   0.368343   0.527469
    3            -0.000003   0.000354   0.006861   0.276215   0.293189
    4            -0.000003   0.000354   0.006861   0.276215   0.293189

                      6          7          8

                  2.000000   2.000000   2.000000

    1             0.483928   0.683173   0.162862
    2             1.360694   1.314635   1.368647
    3             0.077689   0.001096   0.234246
    4             0.077689   0.001096   0.234246

               ----- POPULATIONS IN EACH AO -----
                             MULLIKEN      LOWDIN
              1  C  1  S      1.99668     1.97743
              2  C  1  S      0.70199     0.36332
              3  C  1  X      0.38401     0.35055
              4  C  1  Y      0.73936     0.62241
              5  C  1  Z      0.71997     0.63529
              6  C  1  S      0.48795     0.33549
              7  C  1  X      0.28333     0.32568
              8  C  1  Y      0.26598     0.43396
              9  C  1  Z      0.10474     0.27660
             10  C  1 XX     -0.02344     0.09988
             11  C  1 YY      0.00864     0.16564
             12  C  1 ZZ      0.03298     0.20680
             13  C  1 XY      0.00000     0.00000
             14  C  1 XZ      0.01584     0.02629
             15  C  1 YZ      0.04367     0.09408
             16  O  2  S      1.99564     1.97801
             17  O  2  S      0.92217     0.72222
             18  O  2  X      0.72125     0.67881
             19  O  2  Y      1.16635     1.13062
             20  O  2  Z      0.91181     0.84897
             21  O  2  S      0.94657     0.47870
             22  O  2  X      0.57931     0.59521
             23  O  2  Y      0.72405     0.73603
             24  O  2  Z      0.44814     0.54171
             25  O  2 XX      0.00100     0.17149
             26  O  2 YY      0.00333     0.17285
             27  O  2 ZZ      0.01959     0.19630
             28  O  2 XY      0.00000     0.00000
             29  O  2 XZ      0.01407     0.01563
             30  O  2 YZ      0.00572     0.01317
             31  H  3  S      0.54435     0.49963
             32  H  3  S      0.33245     0.37145
             33  H  3  X      0.00110     0.00392
             34  H  3  Y      0.00870     0.02023
             35  H  3  Z      0.00304     0.00821
             36  H  4  S      0.54435     0.49963
             37  H  4  S      0.33245     0.37145
             38  H  4  X      0.00110     0.00392
             39  H  4  Y      0.00870     0.02023
             40  H  4  Z      0.00304     0.00821

          ----- MULLIKEN ATOMIC OVERLAP POPULATIONS -----
          (OFF-DIAGONAL ELEMENTS NEED TO BE MULTIPLIED BY 2)

             1           2           3           4

    1    4.4692757
    2    0.5223747   8.0390144
    3    0.3850246  -0.0511908   0.6217790
    4    0.3850246  -0.0511908  -0.0659663   0.6217790

          TOTAL MULLIKEN AND LOWDIN ATOMIC POPULATIONS
       ATOM         MULL.POP.    CHARGE          LOW.POP.     CHARGE
    1 C             5.761700    0.238300         5.913411    0.086589
    2 O             8.459007   -0.459007         8.279725   -0.279725
    3 H             0.889646    0.110354         0.903432    0.096568
    4 H             0.889646    0.110354         0.903432    0.096568

          -------------------------------
          BOND ORDER AND VALENCE ANALYSIS     BOND ORDER THRESHOLD=0.050
          -------------------------------

                   BOND                       BOND                       BOND
  ATOM PAIR DIST  ORDER      ATOM PAIR DIST  ORDER      ATOM PAIR DIST  ORDER
    1   2  1.230  1.908        1   3  1.090  0.933        1   4  1.090  0.933

                       TOTAL       BONDED        FREE
      ATOM            VALENCE     VALENCE     VALENCE
    1 C                 3.775       3.775       0.000
    2 O                 1.929       1.929      -0.000
    3 H                 0.942       0.942      -0.000
    4 H                 0.942       0.942       0.000

          ---------------------
          ELECTROSTATIC MOMENTS
          ---------------------

 POINT   1           X           Y           Z (BOHR)    CHARGE
                 0.000000    0.000000    1.169657        0.00 (A.U.)
         DX          DY          DZ         /D/  (DEBYE)
     0.000000   -0.000000   -2.883068    2.883068
 ...... END OF PROPERTY EVALUATION ......
 STEP CPU TIME =     0.00 TOTAL CPU TIME =        0.1 (    0.0 MIN)
 TOTAL WALL CLOCK TIME=        0.1 SECONDS, CPU UTILIZATION IS  88.89%

 BEGINNING ONE ELECTRON GRADIENT...
 ..... END OF 1-ELECTRON GRADIENT ......
 STEP CPU TIME =     0.00 TOTAL CPU TIME =        0.1 (    0.0 MIN)
 TOTAL WALL CLOCK TIME=        0.1 SECONDS, CPU UTILIZATION IS  88.89%

          ----------------------
          GRADIENT OF THE ENERGY
          ----------------------

 THE MINIMUM MEMORY REQUIRED FOR THIS RUN IS      77136 WORDS.
 USING     991686 WORDS FOR 2E- DERIVATIVE INTEGRAL CONTRIBUTIONS.
 THE COARSE/FINE SCHWARZ SCREENINGS SKIPPED            0/           0 BLOCKS.
 THE NUMBER OF GRADIENT INTEGRAL BLOCKS COMPUTED WAS      5413
 ...... END OF 2-ELECTRON GRADIENT ......
 STEP CPU TIME =     0.10 TOTAL CPU TIME =        0.2 (    0.0 MIN)
 TOTAL WALL CLOCK TIME=        0.2 SECONDS, CPU UTILIZATION IS 100.00%

          NSERCH=  0     ENERGY=    -113.8659016

                                 -----------------------
                                 GRADIENT (HARTREE/BOHR)
                                 -----------------------
        ATOM     ZNUC       DE/DX         DE/DY         DE/DZ
 --------------------------------------------------------------
    1  C            6.0     0.0000000     0.0000000    -0.0834099
    2  O            8.0     0.0000000     0.0000000     0.0764139
    3  H            1.0     0.0000000     0.0040955     0.0034980
    4  H            1.0     0.0000000    -0.0040955     0.0034980

          MAXIMUM GRADIENT = 0.0834099    RMS GRADIENT = 0.0327291

 NSERCH:   0  E=     -113.8659015914  GRAD. MAX=  0.0834099  R.M.S.=  0.0327291

          FORCE CONSTANT MATRIX NOT UPDATED --- TAKING FIRST STEP
          MIN SEARCH, CORRECT HESSIAN, TRYING PURE NR STEP
               NR STEP HAS LENGTH         =   0.296438
          RADIUS OF STEP TAKEN=   0.29644  CURRENT TRUST RADIUS=   0.30000

 BEGINNING GEOMETRY SEARCH POINT NSERCH=   1 ...

 COORDINATES OF ALL ATOMS ARE (ANGS)
   ATOM   CHARGE       X              Y              Z
 ------------------------------------------------------------
 C           6.0   0.0000000000  -0.0000000000   0.0904163885
 O           8.0  -0.0000000000   0.0000000000   1.2412299120
 H           1.0  -0.0000000000   0.8693337290  -0.5958231503
 H           1.0  -0.0000000000  -0.8693337290  -0.5958231503

          INTERNUCLEAR DISTANCES (ANGS.)
          ------------------------------

                1 C          2 O          3 H          4 H     

   1 C       0.0000000    1.1508135 *  1.1075495 *  1.1075495 *
   2 O       1.1508135 *  0.0000000    2.0323644 *  2.0323644 *
   3 H       1.1075495 *  2.0323644 *  0.0000000    1.7386675 *
   4 H       1.1075495 *  2.0323644 *  1.7386675 *  0.0000000  

  * ... LESS THAN  3.000

 ...... END OF ONE-ELECTRON INTEGRALS ......
 STEP CPU TIME =     0.00 TOTAL CPU TIME =        0.2 (    0.0 MIN)
 TOTAL WALL CLOCK TIME=        0.2 SECONDS, CPU UTILIZATION IS 100.00%
 TOTAL NUMBER OF NONZERO TWO-ELECTRON INTEGRALS =              150312
         11 INTEGRAL RECORDS WERE STORED ON DISK FILE  8.
  ...... END OF TWO-ELECTRON INTEGRALS .....
 STEP CPU TIME =     0.02 TOTAL CPU TIME =        0.2 (    0.0 MIN)
 TOTAL WALL CLOCK TIME=        0.2 SECONDS, CPU UTILIZATION IS  95.24%

          --------------------------
                 RHF SCF CALCULATION
          --------------------------
     DENSITY MATRIX CONV=  2.00E-04

 ITER EX DEM     TOTAL ENERGY        E CHANGE  DENSITY CHANGE     ORB. GRAD
          ---------------START SECOND ORDER SCF---------------
   1  0  0     -113.8550246497  -113.8550246497   0.035437385   0.024304326
   2  1  0     -113.8620360126    -0.0070113629   0.022199738   0.010763569
   3  2  0     -113.8627735364    -0.0007375238   0.006105963   0.005632384
   4  3  0     -113.8629549606    -0.0001814241   0.002132791   0.000934544
   5  4  0     -113.8629644011    -0.0000094405   0.000712888   0.000360938
   6  5  0     -113.8629653522    -0.0000009512   0.000231283   0.000094765
   7  6  0     -113.8629654463    -0.0000000941   0.000063262   0.000025057
   8  7  0     -113.8629654536    -0.0000000073   0.000021809   0.000007167

          -----------------
          DENSITY CONVERGED
          -----------------
     TIME TO FORM FOCK OPERATORS=       0.0 SECONDS (       0.0 SEC/ITER)
     TIME TO SOLVE SCF EQUATIONS=       0.0 SECONDS (       0.0 SEC/ITER)

 FINAL RHF ENERGY IS     -113.8629654536 AFTER   8 ITERATIONS
 ...... END OF RHF CALCULATION ......
 STEP CPU TIME =     0.01 TOTAL CPU TIME =        0.2 (    0.0 MIN)
 TOTAL WALL CLOCK TIME=        0.2 SECONDS, CPU UTILIZATION IS  91.30%
 ..... END OF 1-ELECTRON GRADIENT ......
 STEP CPU TIME =     0.01 TOTAL CPU TIME =        0.2 (    0.0 MIN)
 TOTAL WALL CLOCK TIME=        0.2 SECONDS, CPU UTILIZATION IS  95.65%
 ...... END OF 2-ELECTRON GRADIENT ......
 STEP CPU TIME =     0.05 TOTAL CPU TIME =        0.3 (    0.0 MIN)
 TOTAL WALL CLOCK TIME=        0.3 SECONDS, CPU UTILIZATION IS  93.10%

          NSERCH=  1     ENERGY=    -113.8629655

                                 -----------------------
                                 GRADIENT (HARTREE/BOHR)
                                 -----------------------
        ATOM     ZNUC       DE/DX         DE/DY         DE/DZ
 --------------------------------------------------------------
    1  C            6.0     0.0000000     0.0000000     0.1003532
    2  O            8.0     0.0000000     0.0000000    -0.0620882
    3  H            1.0     0.0000000    -0.0112673    -0.0191325
    4  H            1.0     0.0000000     0.0112673    -0.0191325

          MAXIMUM GRADIENT = 0.1003532    RMS GRADIENT = 0.0352511

 NSERCH:   1  E=     -113.8629654536  GRAD. MAX=  0.1003532  R.M.S.=  0.0352511

          HESSIAN UPDATED USING THE BFGS FORMULA
             ACTUAL ENERGY CHANGE WAS   0.0029361378
          PREDICTED ENERGY CHANGE WAS  -0.0072285688 RATIO= -0.406
          MIN SEARCH, CORRECT HESSIAN, TRYING PURE NR STEP
               NR STEP HAS LENGTH         =   0.331146
          TRIM/QA LAMBDA FOR NON-TS MODES =  -0.11186945
          TRIM/QA STEP HAS LENGTH         =   0.148219
          RADIUS OF STEP TAKEN=   0.14822  CURRENT TRUST RADIUS=   0.14822

 BEGINNING GEOMETRY SEARCH POINT NSERCH=   2 ...

 COORDINATES OF ALL ATOMS ARE (ANGS)
   ATOM   CHARGE       X              Y              Z
 ------------------------------------------------------------
 C           6.0   0.0000000000   0.0000000000   0.0441460382
 O           8.0  -0.0000000000   0.0000000000   1.2310427038
 H           1.0  -0.0000000000   0.9033445100  -0.5675943710
 H           1.0  -0.0000000000  -0.9033445100  -0.5675943710

          INTERNUCLEAR DISTANCES (ANGS.)
          ------------------------------

                1 C          2 O          3 H          4 H     

   1 C       0.0000000    1.1868967 *  1.0909893 *  1.0909893 *
   2 O       1.1868967 *  0.0000000    2.0127411 *  2.0127411 *
   3 H       1.0909893 *  2.0127411 *  0.0000000    1.8066890 *
   4 H       1.0909893 *  2.0127411 *  1.8066890 *  0.0000000  

  * ... LESS THAN  3.000

 ...... END OF ONE-ELECTRON INTEGRALS ......
 STEP CPU TIME =     0.00 TOTAL CPU TIME =        0.3 (    0.0 MIN)
 TOTAL WALL CLOCK TIME=        0.3 SECONDS, CPU UTILIZATION IS  93.10%
 TOTAL NUMBER OF NONZERO TWO-ELECTRON INTEGRALS =              150366
         11 INTEGRAL RECORDS WERE STORED ON DISK FILE  8.
  ...... END OF TWO-ELECTRON INTEGRALS .....
 STEP CPU TIME =     0.03 TOTAL CPU TIME =        0.3 (    0.0 MIN)
 TOTAL WALL CLOCK TIME=        0.3 SECONDS, CPU UTILIZATION IS  96.77%

          --------------------------
                 RHF SCF CALCULATION
          --------------------------
     DENSITY MATRIX CONV=  2.00E-04

 ITER EX DEM     TOTAL ENERGY        E CHANGE  DENSITY CHANGE     ORB. GRAD
          ---------------START SECOND ORDER SCF---------------
   1  0  0     -113.8671133359  -113.8671133359   0.019044956   0.013123056
   2  1  0     -113.8689397344    -0.0018263985   0.011198279   0.005156622
   3  2  0     -113.8691384547    -0.0001987203   0.002510307   0.002465303
   4  3  0     -113.8691730070    -0.0000345523   0.000756798   0.000360301
   5  4  0     -113.8691742235    -0.0000012165   0.000474980   0.000133273
   6  5  0     -113.8691744856    -0.0000002621   0.000126710   0.000045267
   7  6  0     -113.8691745143    -0.0000000287   0.000041339   0.000014157
   8  7  0     -113.8691745177    -0.0000000034   0.000012407   0.000004492

          -----------------
          DENSITY CONVERGED
          -----------------
     TIME TO FORM FOCK OPERATORS=       0.0 SECONDS (       0.0 SEC/ITER)
     TIME TO SOLVE SCF EQUATIONS=       0.0 SECONDS (       0.0 SEC/ITER)

 FINAL RHF ENERGY IS     -113.8691745177 AFTER   8 ITERATIONS
 ...... END OF RHF CALCULATION ......
 STEP CPU TIME =     0.02 TOTAL CPU TIME =        0.3 (    0.0 MIN)
 TOTAL WALL CLOCK TIME=        0.3 SECONDS, CPU UTILIZATION IS 100.00%
 ..... END OF 1-ELECTRON GRADIENT ......
 STEP CPU TIME =     0.00 TOTAL CPU TIME =        0.3 (    0.0 MIN)
 TOTAL WALL CLOCK TIME=        0.3 SECONDS, CPU UTILIZATION IS  96.97%
 ...... END OF 2-ELECTRON GRADIENT ......
 STEP CPU TIME =     0.05 TOTAL CPU TIME =        0.4 (    0.0 MIN)
 TOTAL WALL CLOCK TIME=        0.4 SECONDS, CPU UTILIZATION IS  97.37%

          NSERCH=  2     ENERGY=    -113.8691745

                                 -----------------------
                                 GRADIENT (HARTREE/BOHR)
                                 -----------------------
        ATOM     ZNUC       DE/DX         DE/DY         DE/DZ
 --------------------------------------------------------------
    1  C            6.0     0.0000000     0.0000000     0.0011770
    2  O            8.0     0.0000000     0.0000000     0.0087526
    3  H            1.0     0.0000000    -0.0063224    -0.0049648
    4  H            1.0     0.0000000     0.0063224    -0.0049648

          MAXIMUM GRADIENT = 0.0087526    RMS GRADIENT = 0.0041557

 NSERCH:   2  E=     -113.8691745177  GRAD. MAX=  0.0087526  R.M.S.=  0.0041557

          HESSIAN UPDATED USING THE BFGS FORMULA
             ACTUAL ENERGY CHANGE WAS  -0.0062090641
          PREDICTED ENERGY CHANGE WAS  -0.0067633309 RATIO=  0.918
          MIN SEARCH, CORRECT HESSIAN, TRYING PURE NR STEP
               NR STEP HAS LENGTH         =   0.176029
          RADIUS OF STEP TAKEN=   0.17603  CURRENT TRUST RADIUS=   0.29644

 BEGINNING GEOMETRY SEARCH POINT NSERCH=   3 ...

 COORDINATES OF ALL ATOMS ARE (ANGS)
   ATOM   CHARGE       X              Y              Z
 ------------------------------------------------------------
 C           6.0  -0.0000000000   0.0000000000   0.0175224495
 O           8.0   0.0000000000  -0.0000000000   1.1857445905
 H           1.0   0.0000000000   0.9441487415  -0.5316335200
 H           1.0   0.0000000000  -0.9441487415  -0.5316335200

          INTERNUCLEAR DISTANCES (ANGS.)
          ------------------------------

                1 C          2 O          3 H          4 H     

   1 C       0.0000000    1.1682221 *  1.0922404 *  1.0922404 *
   2 O       1.1682221 *  0.0000000    1.9597970 *  1.9597970 *
   3 H       1.0922404 *  1.9597970 *  0.0000000    1.8882975 *
   4 H       1.0922404 *  1.9597970 *  1.8882975 *  0.0000000  

  * ... LESS THAN  3.000

 ...... END OF ONE-ELECTRON INTEGRALS ......
 STEP CPU TIME =     0.00 TOTAL CPU TIME =        0.4 (    0.0 MIN)
 TOTAL WALL CLOCK TIME=        0.4 SECONDS, CPU UTILIZATION IS  97.37%
 TOTAL NUMBER OF NONZERO TWO-ELECTRON INTEGRALS =              150478
         11 INTEGRAL RECORDS WERE STORED ON DISK FILE  8.
  ...... END OF TWO-ELECTRON INTEGRALS .....
 STEP CPU TIME =     0.02 TOTAL CPU TIME =        0.4 (    0.0 MIN)
 TOTAL WALL CLOCK TIME=        0.4 SECONDS, CPU UTILIZATION IS  97.50%

          --------------------------
                 RHF SCF CALCULATION
          --------------------------
     DENSITY MATRIX CONV=  1.00E-05

 ITER EX DEM     TOTAL ENERGY        E CHANGE  DENSITY CHANGE     ORB. GRAD
          ---------------START SECOND ORDER SCF---------------
   1  0  0     -113.8680298009  -113.8680298009   0.007116645   0.005738434
   2  1  0     -113.8685249638    -0.0004951629   0.002966923   0.001722234
   3  2  0     -113.8685578703    -0.0000329065   0.000984956   0.000388936
   4  3  0     -113.8685600070    -0.0000021367   0.000534090   0.000245477
   5  4  0     -113.8685603488    -0.0000003418   0.000128908   0.000092874
   6  5  0     -113.8685604159    -0.0000000671   0.000039920   0.000021012
   7  6  0     -113.8685604223    -0.0000000064   0.000020391   0.000007603
   8  7  0     -113.8685604229    -0.0000000006   0.000002643   0.000000989
   9  8  0     -113.8685604229    -0.0000000000   0.000000663   0.000000263

          -----------------
          DENSITY CONVERGED
          -----------------
     TIME TO FORM FOCK OPERATORS=       0.0 SECONDS (       0.0 SEC/ITER)
     TIME TO SOLVE SCF EQUATIONS=       0.0 SECONDS (       0.0 SEC/ITER)

 FINAL RHF ENERGY IS     -113.8685604229 AFTER   9 ITERATIONS
 ...... END OF RHF CALCULATION ......
 STEP CPU TIME =     0.01 TOTAL CPU TIME =        0.4 (    0.0 MIN)
 TOTAL WALL CLOCK TIME=        0.4 SECONDS, CPU UTILIZATION IS  95.24%
 ..... END OF 1-ELECTRON GRADIENT ......
 STEP CPU TIME =     0.01 TOTAL CPU TIME =        0.4 (    0.0 MIN)
 TOTAL WALL CLOCK TIME=        0.4 SECONDS, CPU UTILIZATION IS  97.62%
 ...... END OF 2-ELECTRON GRADIENT ......
 STEP CPU TIME =     0.05 TOTAL CPU TIME =        0.5 (    0.0 MIN)
 TOTAL WALL CLOCK TIME=        0.5 SECONDS, CPU UTILIZATION IS  97.87%

          NSERCH=  3     ENERGY=    -113.8685604

                                 -----------------------
                                 GRADIENT (HARTREE/BOHR)
                                 -----------------------
        ATOM     ZNUC       DE/DX         DE/DY         DE/DZ
 --------------------------------------------------------------
    1  C            6.0     0.0000000     0.0000000     0.0246061
    2  O            8.0     0.0000000     0.0000000    -0.0399498
    3  H            1.0     0.0000000     0.0031333     0.0076719
    4  H            1.0     0.0000000    -0.0031333     0.0076719

          MAXIMUM GRADIENT = 0.0399498    RMS GRADIENT = 0.0139607

 NSERCH:   3  E=     -113.8685604229  GRAD. MAX=  0.0399498  R.M.S.=  0.0139607

          HESSIAN UPDATED USING THE BFGS FORMULA
             ACTUAL ENERGY CHANGE WAS   0.0006140949
          PREDICTED ENERGY CHANGE WAS  -0.0012291283 RATIO= -0.500
          MIN SEARCH, CORRECT HESSIAN, TRYING PURE NR STEP
               NR STEP HAS LENGTH         =   0.093095
          TRIM/QA LAMBDA FOR NON-TS MODES =  -0.01002631
          TRIM/QA STEP HAS LENGTH         =   0.088015
          RADIUS OF STEP TAKEN=   0.08801  CURRENT TRUST RADIUS=   0.08801

 BEGINNING GEOMETRY SEARCH POINT NSERCH=   4 ...

 COORDINATES OF ALL ATOMS ARE (ANGS)
   ATOM   CHARGE       X              Y              Z
 ------------------------------------------------------------
 C           6.0  -0.0000000000  -0.0000000000   0.0283327120
 O           8.0   0.0000000000  -0.0000000000   1.2130625377
 H           1.0   0.0000000000   0.9271302884  -0.5506976248
 H           1.0   0.0000000000  -0.9271302884  -0.5506976248

          INTERNUCLEAR DISTANCES (ANGS.)
          ------------------------------

                1 C          2 O          3 H          4 H     

   1 C       0.0000000    1.1847298 *  1.0930904 *  1.0930904 *
   2 O       1.1847298 *  0.0000000    1.9925914 *  1.9925914 *
   3 H       1.0930904 *  1.9925914 *  0.0000000    1.8542606 *
   4 H       1.0930904 *  1.9925914 *  1.8542606 *  0.0000000  

  * ... LESS THAN  3.000

 ...... END OF ONE-ELECTRON INTEGRALS ......
 STEP CPU TIME =     0.00 TOTAL CPU TIME =        0.5 (    0.0 MIN)
 TOTAL WALL CLOCK TIME=        0.5 SECONDS, CPU UTILIZATION IS  97.87%
 TOTAL NUMBER OF NONZERO TWO-ELECTRON INTEGRALS =              150408
         11 INTEGRAL RECORDS WERE STORED ON DISK FILE  8.
  ...... END OF TWO-ELECTRON INTEGRALS .....
 STEP CPU TIME =     0.02 TOTAL CPU TIME =        0.5 (    0.0 MIN)
 TOTAL WALL CLOCK TIME=        0.5 SECONDS, CPU UTILIZATION IS  97.96%

          --------------------------
                 RHF SCF CALCULATION
          --------------------------
     DENSITY MATRIX CONV=  5.00E-05

 ITER EX DEM     TOTAL ENERGY        E CHANGE  DENSITY CHANGE     ORB. GRAD
          ---------------START SECOND ORDER SCF---------------
   1  0  0     -113.8694993215  -113.8694993215   0.005111747   0.004895151
   2  1  0     -113.8697209146    -0.0002215931   0.002361716   0.001493027
   3  2  0     -113.8697384757    -0.0000175611   0.000904562   0.000502614
   4  3  0     -113.8697396254    -0.0000011497   0.000274807   0.000224340
   5  4  0     -113.8697398975    -0.0000002721   0.000106765   0.000043839
   6  5  0     -113.8697399209    -0.0000000234   0.000055223   0.000013913
   7  6  0     -113.8697399251    -0.0000000042   0.000013866   0.000003882
   8  7  0     -113.8697399254    -0.0000000003   0.000005846   0.000001279

          -----------------
          DENSITY CONVERGED
          -----------------
     TIME TO FORM FOCK OPERATORS=       0.0 SECONDS (       0.0 SEC/ITER)
     TIME TO SOLVE SCF EQUATIONS=       0.0 SECONDS (       0.0 SEC/ITER)

 FINAL RHF ENERGY IS     -113.8697399254 AFTER   8 ITERATIONS
 ...... END OF RHF CALCULATION ......
 STEP CPU TIME =     0.02 TOTAL CPU TIME =        0.5 (    0.0 MIN)
 TOTAL WALL CLOCK TIME=        0.5 SECONDS, CPU UTILIZATION IS  98.04%
 ..... END OF 1-ELECTRON GRADIENT ......
 STEP CPU TIME =     0.00 TOTAL CPU TIME =        0.5 (    0.0 MIN)
 TOTAL WALL CLOCK TIME=        0.5 SECONDS, CPU UTILIZATION IS  98.04%
 ...... END OF 2-ELECTRON GRADIENT ......
 STEP CPU TIME =     0.06 TOTAL CPU TIME =        0.6 (    0.0 MIN)
 TOTAL WALL CLOCK TIME=        0.6 SECONDS, CPU UTILIZATION IS 100.00%

          NSERCH=  4     ENERGY=    -113.8697399

                                 -----------------------
                                 GRADIENT (HARTREE/BOHR)
                                 -----------------------
        ATOM     ZNUC       DE/DX         DE/DY         DE/DZ
 --------------------------------------------------------------
    1  C            6.0     0.0000000     0.0000000    -0.0012618
    2  O            8.0     0.0000000     0.0000000     0.0002261
    3  H            1.0     0.0000000     0.0002360     0.0005178
    4  H            1.0     0.0000000    -0.0002360     0.0005178

          MAXIMUM GRADIENT = 0.0012618    RMS GRADIENT = 0.0004369

 NSERCH:   4  E=     -113.8697399254  GRAD. MAX=  0.0012618  R.M.S.=  0.0004369

          HESSIAN UPDATED USING THE BFGS FORMULA
             ACTUAL ENERGY CHANGE WAS  -0.0011795025
          PREDICTED ENERGY CHANGE WAS  -0.0011958294 RATIO=  0.986
          MIN SEARCH, CORRECT HESSIAN, TRYING PURE NR STEP
               NR STEP HAS LENGTH         =   0.006201
          RADIUS OF STEP TAKEN=   0.00620  CURRENT TRUST RADIUS=   0.17603

 BEGINNING GEOMETRY SEARCH POINT NSERCH=   5 ...

 COORDINATES OF ALL ATOMS ARE (ANGS)
   ATOM   CHARGE       X              Y              Z
 ------------------------------------------------------------
 C           6.0  -0.0000000000  -0.0000000000   0.0297518151
 O           8.0   0.0000000000   0.0000000000   1.2141899268
 H           1.0   0.0000000000   0.9256740634  -0.5519708709
 H           1.0   0.0000000000  -0.9256740635  -0.5519708710

          INTERNUCLEAR DISTANCES (ANGS.)
          ------------------------------

                1 C          2 O          3 H          4 H     

   1 C       0.0000000    1.1844381 *  1.0932858 *  1.0932858 *
   2 O       1.1844381 *  0.0000000    1.9940402 *  1.9940402 *
   3 H       1.0932858 *  1.9940402 *  0.0000000    1.8513481 *
   4 H       1.0932858 *  1.9940402 *  1.8513481 *  0.0000000  

  * ... LESS THAN  3.000

 ...... END OF ONE-ELECTRON INTEGRALS ......
 STEP CPU TIME =     0.00 TOTAL CPU TIME =        0.6 (    0.0 MIN)
 TOTAL WALL CLOCK TIME=        0.6 SECONDS, CPU UTILIZATION IS 100.00%
 TOTAL NUMBER OF NONZERO TWO-ELECTRON INTEGRALS =              150406
         11 INTEGRAL RECORDS WERE STORED ON DISK FILE  8.
  ...... END OF TWO-ELECTRON INTEGRALS .....
 STEP CPU TIME =     0.01 TOTAL CPU TIME =        0.6 (    0.0 MIN)
 TOTAL WALL CLOCK TIME=        0.6 SECONDS, CPU UTILIZATION IS  98.28%

          --------------------------
                 RHF SCF CALCULATION
          --------------------------
     DENSITY MATRIX CONV=  1.00E-05

 ITER EX DEM     TOTAL ENERGY        E CHANGE  DENSITY CHANGE     ORB. GRAD
          ---------------START SECOND ORDER SCF---------------
   1  0  0     -113.8697423982  -113.8697423982   0.000350680   0.000241376
   2  1  0     -113.8697431468    -0.0000007486   0.000191603   0.000086183
   3  2  0     -113.8697432129    -0.0000000662   0.000070512   0.000059381
   4  3  0     -113.8697432293    -0.0000000164   0.000014450   0.000008427
   5  4  0     -113.8697432302    -0.0000000008   0.000011072   0.000003054
   6  5  0     -113.8697432304    -0.0000000002   0.000002112   0.000000687

          -----------------
          DENSITY CONVERGED
          -----------------
     TIME TO FORM FOCK OPERATORS=       0.0 SECONDS (       0.0 SEC/ITER)
     TIME TO SOLVE SCF EQUATIONS=       0.0 SECONDS (       0.0 SEC/ITER)

 FINAL RHF ENERGY IS     -113.8697432304 AFTER   6 ITERATIONS
 ...... END OF RHF CALCULATION ......
 STEP CPU TIME =     0.01 TOTAL CPU TIME =        0.6 (    0.0 MIN)
 TOTAL WALL CLOCK TIME=        0.6 SECONDS, CPU UTILIZATION IS  98.31%
 ..... END OF 1-ELECTRON GRADIENT ......
 STEP CPU TIME =     0.01 TOTAL CPU TIME =        0.6 (    0.0 MIN)
 TOTAL WALL CLOCK TIME=        0.6 SECONDS, CPU UTILIZATION IS  98.33%
 ...... END OF 2-ELECTRON GRADIENT ......
 STEP CPU TIME =     0.05 TOTAL CPU TIME =        0.6 (    0.0 MIN)
 TOTAL WALL CLOCK TIME=        0.6 SECONDS, CPU UTILIZATION IS  98.46%

          NSERCH=  5     ENERGY=    -113.8697432

                                 -----------------------
                                 GRADIENT (HARTREE/BOHR)
                                 -----------------------
        ATOM     ZNUC       DE/DX         DE/DY         DE/DZ
 --------------------------------------------------------------
    1  C            6.0     0.0000000     0.0000000    -0.0000322
    2  O            8.0     0.0000000     0.0000000     0.0000072
    3  H            1.0     0.0000000    -0.0000397     0.0000125
    4  H            1.0     0.0000000     0.0000397     0.0000125

          MAXIMUM GRADIENT = 0.0000397    RMS GRADIENT = 0.0000195

 NSERCH:   5  E=     -113.8697432304  GRAD. MAX=  0.0000397  R.M.S.=  0.0000195


      ***** EQUILIBRIUM GEOMETRY LOCATED *****
 COORDINATES OF ALL ATOMS ARE (ANGS)
   ATOM   CHARGE       X              Y              Z
 ------------------------------------------------------------
 C           6.0  -0.0000000000  -0.0000000000   0.0297518151
 O           8.0   0.0000000000   0.0000000000   1.2141899268
 H           1.0   0.0000000000   0.9256740634  -0.5519708709
 H           1.0   0.0000000000  -0.9256740635  -0.5519708710

          INTERNUCLEAR DISTANCES (ANGS.)
          ------------------------------

                1 C          2 O          3 H          4 H     

   1 C       0.0000000    1.1844381 *  1.0932858 *  1.0932858 *
   2 O       1.1844381 *  0.0000000    1.9940402 *  1.9940402 *
   3 H       1.0932858 *  1.9940402 *  0.0000000    1.8513481 *
   4 H       1.0932858 *  1.9940402 *  1.8513481 *  0.0000000  

  * ... LESS THAN  3.000


          NUCLEAR ENERGY    =       31.7853963978
          ELECTRONIC ENERGY =     -145.6551396281
          TOTAL ENERGY      =     -113.8697432304

          ------------------
          MOLECULAR ORBITALS
          ------------------

                      1          2          3          4          5
                  -20.5831   -11.3375    -1.4172    -0.8673    -0.6964
                     A          A          A          A          A   
    1  C  1  S   -0.000001  -0.995658   0.115003   0.161189   0.000000
    2  C  1  S   -0.000381  -0.026815  -0.217999  -0.337876   0.000000
    3  C  1  X    0.000000   0.000000   0.000000   0.000000   0.000000
    4  C  1  Y    0.000000  -0.000000  -0.000000  -0.000000  -0.404054
    5  C  1  Z    0.000228  -0.000744  -0.186540   0.186946   0.000000
    6  C  1  S    0.000313   0.006872  -0.070789  -0.292981   0.000000
    7  C  1  X    0.000000   0.000000   0.000000   0.000000   0.000000
    8  C  1  Y   -0.000000  -0.000000  -0.000000   0.000000  -0.141055
    9  C  1  Z    0.000474  -0.001702   0.014879   0.079416   0.000000
   10  C  1 XX   -0.000009   0.002745   0.017517   0.012456  -0.000000
   11  C  1 YY   -0.000004   0.001900   0.022411  -0.015899  -0.000000
   12  C  1 ZZ    0.000891   0.001017  -0.031353   0.006153   0.000000
   13  C  1 XY    0.000000   0.000000   0.000000   0.000000   0.000000
   14  C  1 XZ    0.000000   0.000000   0.000000   0.000000   0.000000
   15  C  1 YZ   -0.000000   0.000000  -0.000000   0.000000   0.002336
   16  O  2  S   -0.994691   0.000451   0.196861  -0.087505   0.000000
   17  O  2  S   -0.021078  -0.000367  -0.437327   0.202257   0.000000
   18  O  2  X    0.000000   0.000000   0.000000   0.000000   0.000000
   19  O  2  Y    0.000000   0.000000   0.000000   0.000000  -0.350104
   20  O  2  Z    0.001671   0.000366   0.144568   0.146012  -0.000000
   21  O  2  S   -0.004482   0.001368  -0.372625   0.260869  -0.000000
   22  O  2  X    0.000000   0.000000   0.000000   0.000000   0.000000
   23  O  2  Y    0.000000   0.000000   0.000000   0.000000  -0.198986
   24  O  2  Z    0.000033  -0.001390   0.047620   0.075228   0.000000
   25  O  2 XX    0.004225  -0.000183   0.001427   0.001759   0.000000
   26  O  2 YY    0.003891   0.000091   0.001718   0.004963   0.000000
   27  O  2 ZZ    0.003449   0.000065  -0.020015  -0.009544  -0.000000
   28  O  2 XY    0.000000   0.000000   0.000000   0.000000   0.000000
   29  O  2 XZ    0.000000   0.000000   0.000000   0.000000   0.000000
   30  O  2 YZ   -0.000000  -0.000000  -0.000000   0.000000   0.024861
   31  H  3  S    0.000022   0.000263  -0.030008  -0.182656  -0.182195
   32  H  3  S    0.000130  -0.002024   0.003487  -0.075755  -0.126428
   33  H  3  X    0.000000   0.000000   0.000000   0.000000   0.000000
   34  H  3  Y    0.000027  -0.000153   0.004573   0.013046   0.008884
   35  H  3  Z    0.000072   0.000143  -0.004621  -0.006094  -0.006768
   36  H  4  S    0.000022   0.000263  -0.030008  -0.182656   0.182195
   37  H  4  S    0.000130  -0.002024   0.003487  -0.075755   0.126428
   38  H  4  X    0.000000   0.000000   0.000000   0.000000   0.000000
   39  H  4  Y   -0.000027   0.000153  -0.004573  -0.013046   0.008884
   40  H  4  Z    0.000072   0.000143  -0.004621  -0.006094   0.006768

                      6          7          8          9         10
                   -0.6523    -0.5400    -0.4348     0.1452     0.2494
                     A          A          A          A          A   
    1  C  1  S   -0.020753   0.000000   0.000000   0.000000   0.122730
    2  C  1  S    0.063037   0.000000   0.000000   0.000000  -0.144607
    3  C  1  X    0.000000  -0.329055   0.000000  -0.397132   0.000000
    4  C  1  Y    0.000000   0.000000   0.203212   0.000000  -0.000000
    5  C  1  Z    0.371738   0.000000   0.000000   0.000000   0.214711
    6  C  1  S   -0.043231   0.000000   0.000000   0.000000  -2.001508
    7  C  1  X    0.000000  -0.198206   0.000000  -0.724963   0.000000
    8  C  1  Y    0.000000   0.000000   0.051840   0.000000  -0.000000
    9  C  1  Z    0.073773   0.000000   0.000000   0.000000   0.765475
   10  C  1 XX   -0.006471   0.000000  -0.000000   0.000000   0.002800
   11  C  1 YY   -0.024962   0.000000  -0.000000   0.000000   0.009119
   12  C  1 ZZ    0.019095   0.000000   0.000000   0.000000   0.005665
   13  C  1 XY    0.000000  -0.000000   0.000000   0.000000   0.000000
   14  C  1 XZ    0.000000  -0.038070   0.000000   0.031151   0.000000
   15  C  1 YZ    0.000000   0.000000  -0.059524   0.000000  -0.000000
   16  O  2  S    0.071295   0.000000   0.000000   0.000000  -0.001580
   17  O  2  S   -0.160086   0.000000   0.000000   0.000000   0.015873
   18  O  2  X    0.000000  -0.493313   0.000000   0.380079   0.000000
   19  O  2  Y   -0.000000   0.000000  -0.545942   0.000000   0.000000
   20  O  2  Z   -0.512150   0.000000   0.000000   0.000000  -0.059126
   21  O  2  S   -0.328026   0.000000  -0.000000   0.000000  -0.082683
   22  O  2  X    0.000000  -0.349504   0.000000   0.540088   0.000000
   23  O  2  Y   -0.000000   0.000000  -0.431968   0.000000   0.000000
   24  O  2  Z   -0.282452   0.000000   0.000000   0.000000  -0.067724
   25  O  2 XX   -0.006186   0.000000   0.000000   0.000000  -0.002405
   26  O  2 YY   -0.008594   0.000000   0.000000   0.000000   0.009305
   27  O  2 ZZ    0.033932   0.000000  -0.000000   0.000000   0.002405
   28  O  2 XY    0.000000   0.000000   0.000000   0.000000   0.000000
   29  O  2 XZ    0.000000   0.042590   0.000000  -0.003960   0.000000
   30  O  2 YZ    0.000000   0.000000   0.018944   0.000000  -0.000000
   31  H  3  S   -0.091763   0.000000   0.194300   0.000000   0.041623
   32  H  3  S   -0.076748   0.000000   0.250531   0.000000   1.481196
   33  H  3  X    0.000000  -0.005190   0.000000  -0.017169   0.000000
[...]
             16  O  2  S      1.99560     1.97778
             17  O  2  S      0.91785     0.71343
             18  O  2  X      0.73048     0.68467
             19  O  2  Y      1.16085     1.12098
             20  O  2  Z      0.94069     0.87581
             21  O  2  S      0.92891     0.46814
             22  O  2  X      0.56915     0.58395
             23  O  2  Y      0.70980     0.71888
             24  O  2  Z      0.43188     0.52999
             25  O  2 XX      0.00143     0.16847
             26  O  2 YY      0.00359     0.16962
             27  O  2 ZZ      0.01888     0.19644
             28  O  2 XY      0.00000     0.00000
             29  O  2 XZ      0.01550     0.01732
             30  O  2 YZ      0.00682     0.01600
             31  H  3  S      0.54742     0.50432
             32  H  3  S      0.34678     0.37961
             33  H  3  X      0.00103     0.00367
             34  H  3  Y      0.00816     0.01934
             35  H  3  Z      0.00341     0.00868
             36  H  4  S      0.54742     0.50432
             37  H  4  S      0.34678     0.37961
             38  H  4  X      0.00103     0.00367
             39  H  4  Y      0.00816     0.01934
             40  H  4  Z      0.00341     0.00868

          ----- MULLIKEN ATOMIC OVERLAP POPULATIONS -----
          (OFF-DIAGONAL ELEMENTS NEED TO BE MULTIPLIED BY 2)

             1           2           3           4

    1    4.4323428
    2    0.5507238   7.9879652
    3    0.3859588  -0.0536312   0.6525303
    4    0.3859588  -0.0536312  -0.0780631   0.6525303

          TOTAL MULLIKEN AND LOWDIN ATOMIC POPULATIONS
       ATOM         MULL.POP.    CHARGE          LOW.POP.     CHARGE
    1 C             5.754984    0.245016         5.927274    0.072726
    2 O             8.431426   -0.431426         8.241507   -0.241507
    3 H             0.906795    0.093205         0.915609    0.084391
    4 H             0.906795    0.093205         0.915609    0.084391

          -------------------------------
          BOND ORDER AND VALENCE ANALYSIS     BOND ORDER THRESHOLD=0.050
          -------------------------------

                   BOND                       BOND                       BOND
  ATOM PAIR DIST  ORDER      ATOM PAIR DIST  ORDER      ATOM PAIR DIST  ORDER
    1   2  1.184  1.937        1   3  1.093  0.931        1   4  1.093  0.931

                       TOTAL       BONDED        FREE
      ATOM            VALENCE     VALENCE     VALENCE
    1 C                 3.798       3.798      -0.000
    2 O                 1.964       1.964      -0.000
    3 H                 0.942       0.942      -0.000
    4 H                 0.942       0.942       0.000

          ---------------------
          ELECTROSTATIC MOMENTS
          ---------------------

 POINT   1           X           Y           Z (BOHR)    CHARGE
                -0.000000    0.000000    1.175330       -0.00 (A.U.)
         DX          DY          DZ         /D/  (DEBYE)
    -0.000000    0.000000   -2.662956    2.662956
 ...... END OF PROPERTY EVALUATION ......
 STEP CPU TIME =     0.00 TOTAL CPU TIME =        0.6 (    0.0 MIN)
 TOTAL WALL CLOCK TIME=        0.6 SECONDS, CPU UTILIZATION IS  98.46%
  $VIB   
          IVIB=   0 IATOM=   0 ICOORD=   0 E=     -113.8697432304
  0.000000000E+00 0.000000000E+00-3.223262259E-05 0.000000000E+00 0.000000000E+00
  7.197108510E-06 0.000000000E+00-3.966329925E-05 1.251781214E-05 0.000000000E+00
  3.966332303E-05 1.251770080E-05
 -2.063328631E-13 1.235339240E-09-2.662956467E+00
 ......END OF GEOMETRY SEARCH......
 STEP CPU TIME =     0.00 TOTAL CPU TIME =        0.6 (    0.0 MIN)
 TOTAL WALL CLOCK TIME=        0.6 SECONDS, CPU UTILIZATION IS  98.46%


     *********************************************************
     THE HESSIAN WILL NOW BE COMPUTED AT THE STATIONARY POINT.
     *********************************************************

     ---------------------------------
     HESSIAN MATRIX CONTROL PARAMETERS
     ---------------------------------
     METHOD=ANALYTIC   NVIB  =       2   VIBSIZ= 0.01000
     RDHESS=       F   PURIFY=       F   PRTIFC=       F
     VIBANL=       F   DECOMP=       F   PROJCT=       F
     SCLFAC= 1.00000   PRTSCN=       F   NPRT  =       0
     PULCOR=       F   NPUN  =       0   REDOVB=       T

     ------------------------------
     CPHF RESPONSE SOLUTION OPTIONS
     ------------------------------
     POLAR  =       F     NWORD  =       0
     CPHF   =AO      

     ---------------------------------------------
     1ST AND 2ND INTEGRAL DERIVATIVE CONTRIBUTIONS
     ---------------------------------------------
 ...... END OF 1-ELECTRON GRAD+HESS+FOCKDER ......
 STEP CPU TIME =     0.01 TOTAL CPU TIME =        0.6 (    0.0 MIN)
 TOTAL WALL CLOCK TIME=        0.7 SECONDS, CPU UTILIZATION IS  98.48%

     ----------------------------------------------
     TWO ELECTRON INTEGRAL DERIVATIVE CONTRIBUTIONS
     ----------------------------------------------

      24062 WORDS REQUIRED,   1000000 WORDS AVAILABLE
 THE COARSE/FINE SCHWARZ SCREENINGS SKIPPED          0/         0 BLOCKS.
 THE NUMBER OF DERIVATIVE INTEGRAL BLOCKS COMPUTED WAS      5413
 STEP CPU TIME =     0.54 TOTAL CPU TIME =        1.2 (    0.0 MIN)
 TOTAL WALL CLOCK TIME=        1.2 SECONDS, CPU UTILIZATION IS  99.17%
 ...... END OF 2-ELECTRON GRAD+HESS+FOCKDER ......
 STEP CPU TIME =     0.00 TOTAL CPU TIME =        1.2 (    0.0 MIN)
 TOTAL WALL CLOCK TIME=        1.2 SECONDS, CPU UTILIZATION IS  99.17%

     -------------------------------------------
     COUPLED-PERTURBED CLOSED SHELL HARTREE-FOCK
     -------------------------------------------
 THE CPHF HAS     256 INDEPENDENT ORBITAL ROTATIONS.
 SOLVING FOR   12 NUCLEAR RESPONSES AND 0 ELECTRIC FIELD RESPONSES
           -FA- WILL USE      7360 WORDS,
           -TA- WILL USE     24572 WORDS,
          -FCK- WILL USE     59432 WORDS,
 -WXY- AND -YA- WILL USE     70368 WORDS,
               THERE ARE   1000000 WORDS OF REPLICATED MEMORY AVAILABLE.
        TIME FOR -FA-   =        0.000
        TIME FOR -TA-   =        0.000
        TIME FOR -FCK-  =        0.010
 PRECONDITIONED CONJUGATE GRADIENT SOLVER     CONV. TOLERANCE=5.00E-05
 ITER    RESPONSE ERROR        IMPROVED
   1       3.56750E-01            12
   2       1.52084E-01            12
   3       6.23397E-02            12
   4       2.08955E-02            12
   5       5.00932E-03            12
   6       1.01830E-03            12
   7       2.23998E-04            10
   8       3.62961E-05             7
 THE CPHF HAS CONVERGED AFTER  8 ITERATIONS.
 IT REQUIRED    89 FOCK-LIKE BUILDS TO FIND THE  12 SYMMETRY UNIQUE RESPONSES.
        TIME FOR -YA-   =        0.050
 ...... DONE WITH CPHF CONTRIBUTIONS ......
 STEP CPU TIME =     0.06 TOTAL CPU TIME =        1.2 (    0.0 MIN)
 TOTAL WALL CLOCK TIME=        1.3 SECONDS, CPU UTILIZATION IS  99.21%

          ---------------
          ENERGY GRADIENT
          ---------------

 UNITS ARE HARTREE/BOHR    E'X               E'Y               E'Z 
    1 C               -0.000000000       0.000000000      -0.000032236
    2 O                0.000000000      -0.000000000       0.000007234
    3 H                0.000000000      -0.000039634       0.000012501
    4 H                0.000000000       0.000039634       0.000012501

          -------------------------------
          CARTESIAN FORCE CONSTANT MATRIX
          -------------------------------

                                   1                          2
                               C                          O         
                          X        Y        Z        X        Y        Z
  1   C            X 0.215494-0.000000-0.000000-0.070987-0.000000-0.000000
                   Y-0.000000 0.675807-0.000000 0.000000-0.123849-0.000000
                   Z-0.000000-0.000000 1.228655 0.000000 0.000000-0.994808
  2   O            X-0.070987 0.000000 0.000000 0.023384-0.000000-0.000000
                   Y-0.000000-0.123849 0.000000-0.000000 0.086475 0.000000
                   Z-0.000000-0.000000-0.994808-0.000000 0.000000 1.088361
  3   H            X-0.072253 0.000000-0.000000 0.023802 0.000000 0.000000
                   Y-0.000000-0.275979 0.091875 0.000000 0.018687 0.017437
                   Z 0.000000 0.094208-0.116924-0.000000 0.043579-0.046777
  4   H            X-0.072253-0.000000-0.000000 0.023802-0.000000 0.000000
                   Y 0.000000-0.275979-0.091875-0.000000 0.018687-0.017437
                   Z 0.000000-0.094208-0.116924-0.000000-0.043579-0.046777

                                   3                          4
                               H                          H         
                          X        Y        Z        X        Y        Z
  3   H            X 0.024215-0.000000-0.000000 0.024237-0.000000-0.000000
                   Y-0.000000 0.277964-0.123549 0.000000-0.020671 0.014238
                   Z-0.000000-0.123549 0.153014-0.000000-0.014238 0.010686
  4   H            X 0.024237 0.000000-0.000000 0.024215 0.000000-0.000000
                   Y-0.000000-0.020671-0.014238 0.000000 0.277964 0.123549
                   Z-0.000000 0.014238 0.010686-0.000000 0.123549 0.153014

          ------------------------          ----------------
          DIPOLE DERIVATIVE TENSOR          (DEBYE/ANGSTROM)
          ------------------------          ----------------

        ATOM                 MU-X           MU-Y           MU-Z
     C          D/DX     1.286869953    0.000000000    0.000000000
                D/DY     0.000000000    4.484092153   -0.000000032
                D/DZ     0.000000000    0.000000002    5.610754695
     O          D/DX    -1.931629975    0.000000000    0.000000000
                D/DY     0.000000000   -2.580893951    0.000000028
                D/DZ     0.000000000   -0.000000002   -5.191541329
     H          D/DX     0.322381737    0.000000000    0.000000000
                D/DY     0.000000000   -0.951555669    0.493385508
                D/DZ     0.000000000    0.385222604   -0.209656723
     H          D/DX     0.322381738    0.000000000    0.000000000
                D/DY     0.000000000   -0.951555667   -0.493385505
                D/DZ     0.000000000   -0.385222604   -0.209656721

          --------------------------------------------------------
          NORMAL COORDINATE ANALYSIS IN THE HARMONIC APPROXIMATION
          --------------------------------------------------------

          ATOMIC WEIGHTS (AMU)

    1     C                12.00000
    2     O                15.99491
    3     H                 1.00782
    4     H                 1.00782

 MODES 1 TO 6 ARE TAKEN AS ROTATIONS AND TRANSLATIONS.

 ANALYZING SYMMETRY OF NORMAL MODES...

     FREQUENCIES IN CM**-1, IR INTENSITIES IN DEBYE**2/AMU-ANGSTROM**2,
     REDUCED MASSES IN AMU.

                          1           2           3           4           5
       FREQUENCY:        24.10        8.84        2.10        0.02        0.08  
        SYMMETRY:         A           A           A           A           A   
    REDUCED MASS:      1.00783     2.78469     4.01288     7.50264     7.39069
    IR INTENSITY:      0.00000     0.49498     0.55740     0.00000     0.00004

  1   C            X  0.00000032  0.00000000 -0.14784593  0.00000000  0.00000000
                   Y  0.00000000 -0.15484367  0.00000000 -0.00000034  0.18391738
                   Z  0.00000000  0.00000000 -0.00000000  0.18254207  0.00000034
  2   O            X -0.00000032  0.00000000  0.18421344  0.00000000  0.00000000
                   Y -0.00000000  0.15808259  0.00000000 -0.00000034  0.18115236
                   Z  0.00000000  0.00000000 -0.00000000  0.18254207  0.00000034
  3   H            X  0.70435699  0.00000000 -0.31096877 -0.00000000  0.00000000
                   Y  0.00000000 -0.30857913  0.00000000 -0.00000065  0.18527591
                   Z  0.00000000 -0.24464028 -0.00000000  0.18254196  0.00216246
  4   H            X -0.70435572 -0.00000000 -0.31097147 -0.00000000  0.00000000
                   Y  0.00000000 -0.30857913  0.00000000 -0.00000003  0.18527591
                   Z -0.00000000  0.24464028 -0.00000000  0.18254196 -0.00216178

 TRANS. SAYVETZ    X  0.00000000  0.00000000  0.54551943  0.00000000  0.00000001
                   Y  0.00000000  0.04840526  0.00000000 -0.00001030  5.47797562
                   Z  0.00000000  0.00000011 -0.00000000  5.47818948  0.00001030
               TOTAL  0.00000000  0.04840526  0.54551943  5.47818948  5.47797562

   ROT. SAYVETZ    X  0.00000000 -7.15164625  0.00000000  0.00000002  0.06319439
                   Y -0.00001294  0.00000000  6.67354496  0.00000000 -0.00000000
                   Z -2.48350188 -0.00000000 -0.00000477  0.00000000  0.00000000
               TOTAL  2.48350188  7.15164625  6.67354496  0.00000002  0.06319439

                          6           7           8           9          10
       FREQUENCY:         0.21     1335.49     1376.60     1668.30     2025.30  
        SYMMETRY:         A           A           A           A           A   
    REDUCED MASS:      6.30440     1.36935     1.34618     1.09993     7.40747
    IR INTENSITY:      0.00558     0.01454     0.54302     0.23651     3.48276

  1   C            X  0.19824985 -0.14890236  0.00000000  0.00000000  0.00000000
                   Y -0.00000000 -0.00000000 -0.12821625  0.00000000  0.00000000
                   Z -0.00000000  0.00000000  0.00000000  0.00186285  0.21541460
  2   O            X  0.16501829  0.03680025 -0.00000000 -0.00000000  0.00000000
                   Y -0.00000000  0.00000000  0.06865465 -0.00000000 -0.00000000
                   Z -0.00000000 -0.00000000 -0.00000000 -0.07473138 -0.15366085
  3   H            X  0.21457551  0.59445164 -0.00000000 -0.00000000 -0.00000000
                   Y -0.00000000 -0.00000000  0.21852349  0.33635728 -0.16885050
                   Z -0.00000000  0.00000000  0.55954601  0.58193106 -0.06309844
  4   H            X  0.21457578  0.59445164  0.00000000 -0.00000000 -0.00000000
                   Y -0.00000000  0.00000000  0.21852349 -0.33635728  0.16885050
                   Z  0.00000000  0.00000000 -0.55954601  0.58193106 -0.06309844

 TRANS. SAYVETZ    X  5.45096033 -0.00000519 -0.00000000 -0.00000000 -0.00000000
                   Y -0.00000001  0.00000000 -0.00000316  0.00000000 -0.00000000
                   Z -0.00000000  0.00000000  0.00000000  0.00000186 -0.00000066
               TOTAL  5.45096033  0.00000519  0.00000316  0.00000186  0.00000066

   ROT. SAYVETZ    X -0.00000000  0.00000000 -0.00078033  0.00000000 -0.00000000
                   Y -0.66787285  0.00030094 -0.00000000  0.00000000  0.00000000
                   Z  0.00000048 -0.00000000  0.00000000 -0.00000000  0.00000000
               TOTAL  0.66787285  0.00030094  0.00078033  0.00000000  0.00000000

                         11          12
       FREQUENCY:      3121.01     3195.91  
        SYMMETRY:         A           A   
    REDUCED MASS:      1.04944     1.11973
    IR INTENSITY:      1.15946     3.14534

  1   C            X  0.00000000  0.00000000
                   Y -0.00000000 -0.09535071
                   Z -0.06004005  0.00000000
  2   O            X -0.00000000  0.00000000
                   Y -0.00000000  0.00038107
                   Z  0.00135916 -0.00000000
  3   H            X -0.00000000 -0.00000000
                   Y -0.59537481  0.56463893
                   Z  0.34665709 -0.35095954
  4   H            X -0.00000000  0.00000000
                   Y  0.59537481  0.56463893
                   Z  0.34665709  0.35095954

 TRANS. SAYVETZ    X  0.00000000  0.00000000
                   Y  0.00000000  0.00000113
                   Z -0.00000163  0.00000000
               TOTAL  0.00000163  0.00000113

   ROT. SAYVETZ    X  0.00000000  0.00002968
                   Y -0.00000000 -0.00000000
                   Z -0.00000000  0.00000000
               TOTAL  0.00000000  0.00002968

 REFERENCE ON SAYVETZ CONDITIONS - A. SAYVETZ, J.CHEM.PHYS., 7, 383-389(1939).

 NOTE - THE MODES J,K ARE ORTHONORMALIZED ACCORDING TO
 SUM ON I   M(I) * (X(I,J)*X(I,K) + Y(I,J)*Y(I,K) + Z(I,J)*Z(I,K)) = DELTA(J,K)

  MODE FREQ(CM**-1)  SYMMETRY  RED. MASS  IR INTENS.
     1      24.096    A        1.007825    0.000000
     2       8.837    A        2.784689    0.494981
     3       2.096    A        4.012876    0.557401
     4       0.018    A        7.502644    0.000000
     5       0.078    A        7.390685    0.000039
     6       0.210    A        6.304397    0.005583
     7    1335.488    A        1.369353    0.014539
     8    1376.605    A        1.346182    0.543020
     9    1668.300    A        1.099931    0.236506
    10    2025.305    A        7.407467    3.482763
    11    3121.008    A        1.049438    1.159461
    12    3195.913    A        1.119731    3.145340

     -------------------------------
     THERMOCHEMISTRY AT T=  298.15 K
     -------------------------------

 USING IDEAL GAS, RIGID ROTOR, HARMONIC NORMAL MODE APPROXIMATIONS.
 P=  1.01325E+05 PASCAL.
 ALL FREQUENCIES ARE SCALED BY   1.00000
 THE MOMENTS OF INERTIA ARE (IN AMU*BOHR**2)
      6.16778    44.98226    51.15004
 THE ROTATIONAL SYMMETRY NUMBER IS  1.0
 THE ROTATIONAL CONSTANTS ARE (IN GHZ)
    292.33983    40.08443    35.25097
 THE HARMONIC ZERO POINT ENERGY IS (SCALED BY   1.000)
        0.028984 HARTREE/MOLECULE     6361.309130 CM**-1/MOLECULE 
       18.187914 KCAL/MOL               76.098231 KJ/MOL

               Q               LN Q
 ELEC.     1.00000E+00       0.000000
 TRANS.    6.46197E+06      15.681445
 ROT.      1.34850E+03       7.206745
 VIB.      1.00328E+00       0.003270
 TOT.      8.74248E+09      22.891460

              E         H         G         CV        CP        S
           KJ/MOL    KJ/MOL    KJ/MOL   J/MOL-K   J/MOL-K   J/MOL-K
 ELEC.      0.000     0.000     0.000     0.000     0.000     0.000
 TRANS.     3.718     6.197   -38.873    12.472    20.786   151.168
 ROT.       3.718     3.718   -17.865    12.472    12.472    72.391
 VIB.      76.153    76.153    76.090     1.248     1.248     0.211
 TOTAL     83.590    86.069    19.352    26.191    34.506   223.770
 VIB. THERMAL CORRECTION E(T)-E(0) = H(T)-H(0) =    54.675 J/MOL

              E         H         G         CV        CP        S
         KCAL/MOL  KCAL/MOL  KCAL/MOL CAL/MOL-K CAL/MOL-K CAL/MOL-K
 ELEC.      0.000     0.000     0.000     0.000     0.000     0.000
 TRANS.     0.889     1.481    -9.291     2.981     4.968    36.130
 ROT.       0.889     0.889    -4.270     2.981     2.981    17.302
 VIB.      18.201    18.201    18.186     0.298     0.298     0.050
 TOTAL     19.978    20.571     4.625     6.260     8.247    53.482
 VIB. THERMAL CORRECTION E(T)-E(0) = H(T)-H(0) =    13.068 CAL/MOL
 ......END OF NORMAL COORDINATE ANALYSIS......
 STEP CPU TIME =     0.00 TOTAL CPU TIME =        1.2 (    0.0 MIN)
 TOTAL WALL CLOCK TIME=        1.3 SECONDS, CPU UTILIZATION IS  99.21%
               991734  WORDS OF DYNAMIC MEMORY USED
 EXECUTION OF GAMESS TERMINATED NORMALLY Wed Apr 27 11:07:13 2016
 DDI: 263640 bytes (0.3 MB / 0 MWords) used by master data server.

 ----------------------------------------
 CPU timing information for all processes
 ========================================
 0: 1.221 + 0.36 = 1.257
 ----------------------------------------
 ddikick.x: exited gracefully.
----- accounting info -----
Files used on the master node puget were:
-rw-rw-r--. 1 pdobosh pdobosh   96070 Apr 27 11:07 /home/pdobosh/Scratch/GMS-H2CO-9.dat
-rw-rw-r--. 1 pdobosh pdobosh     503 Apr 27 11:07 /home/pdobosh/Scratch/GMS-H2CO-9.F05
-rw-rw-r--. 1 pdobosh pdobosh 1980176 Apr 27 11:07 /home/pdobosh/Scratch/GMS-H2CO-9.F08
-rw-rw-r--. 1 pdobosh pdobosh 1963200 Apr 27 11:07 /home/pdobosh/Scratch/GMS-H2CO-9.F10
-rw-rw-r--. 1 pdobosh pdobosh   78816 Apr 27 11:07 /home/pdobosh/Scratch/GMS-H2CO-9.F18
Wed Apr 27 11:07:16 EDT 2016
0.158u 0.069s 0:04.50 4.6%	0+0k 0+16io 0pf+0w
